! TOUCHSTONE file generated by CST MICROWAVE STUDIO
! Date and time: Sun Mar  9 21:54:52 2025
! Project name: Mas_optimizable_C_dobleP.cst
! Parameters = {Lc4=5.13164; Cz=-21.3846; H=17; Hbl=8.88143; Hbt=5; Hl=7.58026; Hposte=4.23344; Hposte2=2.90011; Ht=10.006; L=2; Lb1=2; Lb2=3.40895; Lc1=5.22891; Lc2=1.15568; Lc3=0.1; Ldielectrico=9.906; Lextra=8.382; Lextra2=12.446; Lp1=7; Lp2=8; Lp3=2; Pb2=0; Rposte=0.9; Rposte2=0.816232; W=34; W2=33.659; Wb=34; aux_p1=3.5; aux_p2=-12.7289; despx=0; dxposte=0; dxposte2=-3.2; opcion=1; posb=-25.4846; target=-29; thickness=2}
! Header version: 2018
! Port assignment regex: !\s*Touchstone port\s*([0-9]+)\s*=\s*(CST MWS port|CST DS port)\s*([0-9]+|Zmin|Zmax)\s*\(\"(.*)\"\)(\s*mode\s*([0-9]+))?.*
! Touchstone port assignment:
! Touchstone port 1 = CST MWS port 1 ("")
! Touchstone port 2 = CST MWS port 2 ("")
# GHz S MA R 50
4.5                  0.989637674      64.3126643      0.141267957     -56.8090395       0.14126799     -56.8092396      0.989967262      2.07267094
4.501                0.989549588      64.1791765       0.14153764     -56.8903606      0.141537677     -56.8905555      0.989941925       2.0607529
4.502                0.989461885      64.0456859      0.141808606      -56.971158      0.141808646     -56.9713479       0.98991575      2.04876511
4.503                0.989374614      63.9121862      0.142080872     -57.0514579      0.142080916     -57.0516429      0.989888751      2.03670997
4.504                 0.98928782      63.7786712      0.142354455     -57.1312857      0.142354501     -57.1314659      0.989860941      2.02458979
4.505                0.989201544      63.6451348      0.142629368     -57.2106658      0.142629418     -57.2108413      0.989832335      2.01240677
4.506                0.989115825      63.5115711      0.142905625     -57.2896218      0.142905678     -57.2897928      0.989802945      2.00016302
4.507                0.989030697       63.377974      0.143183237     -57.3681767      0.143183293     -57.3683432      0.989772785      1.98786056
4.508                0.988946193      63.2443379      0.143462215     -57.4463525      0.143462274     -57.4465147      0.989741866       1.9755013
4.509                0.988862341      63.1106571      0.143742568     -57.5241707      0.143742629     -57.5243287      0.989710203      1.96308711
4.51                  0.98877917      62.9769259      0.144024304     -57.6016518      0.144024367     -57.6018058      0.989677807      1.95061974
4.511                0.988696701       62.843139      0.144307429     -57.6788159      0.144307495     -57.6789659      0.989644689      1.93810089
4.512                0.988614957       62.709291       0.14459195     -57.7556823      0.144592019     -57.7558284      0.989610862      1.92553217
4.513                0.988533956      62.5753766      0.144877872     -57.8322695      0.144877943     -57.8324118      0.989576338      1.91291515
4.514                0.988453716      62.4413906      0.145165198     -57.9085956      0.145165272     -57.9087343      0.989541126      1.90025129
4.515                 0.98837425      62.3073281      0.145453934     -57.9846779       0.14545401      -57.984813      0.989505239      1.88754203
4.516                0.988295571      62.1731841       0.14574408     -58.0605332      0.145744158     -58.0606649      0.989468687      1.87478873
4.517                 0.98821769      62.0389537      0.146035639     -58.1361778       0.14603572      -58.136306      0.989431481      1.86199267
4.518                0.988140614      61.9046322      0.146328613     -58.2116271      0.146328695     -58.2117521       0.98939363      1.84915513
4.519                0.988064352       61.770215      0.146623001     -58.2868964      0.146623086     -58.2870181      0.989355145      1.83627727
4.52                 0.987988906      61.6356975      0.146918804     -58.3620001      0.146918891     -58.3621187      0.989316035      1.82336026
4.521                0.987914282      61.5010753      0.147216023     -58.4369523      0.147216111     -58.4370679       0.98927631      1.81040518
4.522                0.987840481      61.3663441      0.147514654     -58.5117666      0.147514745     -58.5118791      0.989235979      1.79741309
4.523                0.987767503      61.2314995      0.147814699     -58.5864559      0.147814791     -58.5865656      0.989195051      1.78438497
4.524                0.987695347      61.0965375      0.148116154     -58.6610328      0.148116248     -58.6611397      0.989153535      1.77132181
4.525                0.987624011      60.9614539      0.148419017     -58.7355095      0.148419113     -58.7356137       0.98911144       1.7582245
4.526                0.987553492      60.8262449      0.148723286     -58.8098977      0.148723384     -58.8099992      0.989068773      1.74509395
4.527                0.987483784      60.6909065      0.149028959     -58.8842086      0.149029058     -58.8843075      0.989025544      1.73193097
4.528                0.987414882      60.5554349      0.149336031      -58.958453      0.149336131     -58.9585495      0.988981759      1.71873639
4.529                 0.98734678      60.4198264        0.1496445     -59.0326415      0.149644602     -59.0327355      0.988937427      1.70551098
4.53                 0.987279468      60.2840775      0.149954362      -59.106784      0.149954465     -59.1068756      0.988892555      1.69225546
4.531                0.987212939      60.1481845      0.150265613     -59.1808903      0.150265717     -59.1809796      0.988847151      1.67897056
4.532                0.987147183       60.012144      0.150578248     -59.2549696      0.150578355     -59.2550567      0.988801221      1.66565693
4.533                0.987082189      59.8759527      0.150892265      -59.329031      0.150892372     -59.3291158      0.988754772      1.65231524
4.534                0.987017945      59.7396073      0.151207658      -59.403083      0.151207766     -59.4031657      0.988707811      1.63894609
4.535                0.986954441      59.6031045      0.151524422     -59.4771339      0.151524532     -59.4772146      0.988660345      1.62555008
4.536                0.986891663      59.4664412      0.151842554     -59.5511917      0.151842664     -59.5512704       0.98861238      1.61212778
4.537                0.986829598      59.3296143      0.152162047     -59.6252642      0.152162159     -59.6253409      0.988563921      1.59867972
4.538                0.986768233       59.192621      0.152482898     -59.6993585       0.15248301     -59.6994333      0.988514976      1.58520642
4.539                0.986707552      59.0554582      0.152805101     -59.7734819      0.152805214     -59.7735549      0.988465549      1.57170838
4.54                 0.986647541      58.9181231      0.153128651     -59.8476411      0.153128765     -59.8477123      0.988415647      1.55818605
4.541                0.986588185      58.7806129      0.153453543     -59.9218427      0.153453658     -59.9219121      0.988365274      1.54463991
4.542                0.986529467       58.642925      0.153779772     -59.9960929      0.153779888     -59.9961606      0.988314437      1.53107036
4.543                0.986471372      58.5050567      0.154107333     -60.0703976      0.154107449     -60.0704637      0.988263139      1.51747783
4.544                0.986413883      58.3670054       0.15443622     -60.1447628      0.154436337     -60.1448273      0.988211387      1.50386271
4.545                0.986356983      58.2287686      0.154766428      -60.219194      0.154766546     -60.2192569      0.988159184      1.49022536
4.546                0.986300655      58.0903439      0.155097953     -60.2936963      0.155098071     -60.2937577      0.988106536      1.47656615
4.547                0.986244882      57.9517289      0.155430788      -60.368275      0.155430907     -60.3683349      0.988053447      1.46288541
4.548                0.986189645      57.8129213      0.155764929     -60.4429348      0.155765048     -60.4429934      0.987999921      1.44918347
4.549                0.986134927      57.6739187       0.15610037     -60.5176805       0.15610049     -60.5177377      0.987945962      1.43546064
4.55                  0.98608071       57.534719      0.156437106     -60.5925166      0.156437227     -60.5925724      0.987891575       1.4217172
4.551                0.986026976      57.3953201      0.156775133     -60.6674472      0.156775254     -60.6675017      0.987836763      1.40795344
4.552                0.985973705      57.2557197      0.157114445     -60.7424765      0.157114565     -60.7425297      0.987781531      1.39416962
4.553                 0.98592088       57.115916      0.157455036     -60.8176084      0.157455157     -60.8176604      0.987725881      1.38036599
4.554                0.985868483      56.9759068      0.157796903     -60.8928467      0.157797024     -60.8928975      0.987669817       1.3665428
4.555                0.985816493      56.8356902       0.15814004     -60.9681949      0.158140161     -60.9682445      0.987613342      1.35270027
4.556                0.985764894      56.6952643      0.158484442     -61.0436564      0.158484564     -61.0437049      0.987556461      1.33883861
4.557                0.985713665      56.5546273      0.158830105     -61.1192345      0.158830227     -61.1192819      0.987499175      1.32495803
4.558                0.985662788      56.4137774      0.159177023     -61.1949323      0.159177145     -61.1949787      0.987441488      1.31105873
4.559                0.985612244      56.2727127      0.159525193     -61.2707527      0.159525315     -61.2707981      0.987383403      1.29714088
4.56                 0.985562014      56.1314316       0.15987461     -61.3466987      0.159874732     -61.3467431      0.987324922      1.28320467
4.561                0.985512081      55.9899324      0.160225269     -61.4227729      0.160225391     -61.4228162      0.987266048      1.26925024
4.562                0.985462424      55.8482135      0.160577166     -61.4989778      0.160577288     -61.4990202      0.987206784      1.25527776
4.563                0.985413025      55.7062732      0.160930297     -61.5753159      0.160930418     -61.5753574      0.987147132      1.24128738
4.564                0.985363866        55.56411      0.161284657     -61.6517895      0.161284778     -61.6518302      0.987087094      1.22727923
4.565                0.985314928      55.4217224      0.161640243     -61.7284009      0.161640364     -61.7284407      0.987026673      1.21325343
4.566                0.985266193      55.2791089       0.16199705     -61.8051521      0.161997171     -61.8051911       0.98696587      1.19921011
4.567                0.985217642      55.1362681      0.162355074     -61.8820452      0.162355195     -61.8820834      0.986904688      1.18514939
4.568                0.985169257      54.9931984      0.162714313     -61.9590819      0.162714433     -61.9591194      0.986843128      1.17107136
4.569                 0.98512102      54.8498986      0.163074762     -62.0362642      0.163074882     -62.0363009      0.986781193      1.15697613
4.57                 0.985072912      54.7063673      0.163436417     -62.1135937      0.163436537     -62.1136297      0.986718883      1.14286379
4.571                0.985024917      54.5626032      0.163799275     -62.1910721      0.163799395     -62.1911073        0.9866562      1.12873442
4.572                0.984977016       54.418605      0.164163334     -62.2687007      0.164163452     -62.2687353      0.986593147      1.11458811
4.573                0.984929191      54.2743714      0.164528588     -62.3464812      0.164528707     -62.3465151      0.986529724      1.10042492
4.574                0.984881426      54.1299012      0.164895037     -62.4244148      0.164895155     -62.4244481      0.986465933      1.08624493
4.575                0.984833703      53.9851931      0.165262675     -62.5025028      0.165262793     -62.5025355      0.986401775      1.07204819
4.576                0.984786005      53.8402461      0.165631502     -62.5807465      0.165631618     -62.5807786       0.98633725      1.05783477
4.577                0.984738314       53.695059      0.166001513     -62.6591469      0.166001629     -62.6591784      0.986272361       1.0436047
4.578                0.984690615      53.5496306      0.166372706     -62.7377052      0.166372821     -62.7377361      0.986207108      1.02935805
4.579                0.984642891      53.4039598      0.166745078     -62.8164223      0.166745193     -62.8164527      0.986141492      1.01509485
4.58                 0.984595125      53.2580455      0.167118628     -62.8952993      0.167118742     -62.8953291      0.986075514      1.00081514
4.581                0.984547302      53.1118867      0.167493352     -62.9743368      0.167493465     -62.9743662      0.986009174     0.986518954
4.582                0.984499404      52.9654824      0.167869249     -63.0535359      0.167869361     -63.0535648      0.985942473     0.972206315
4.583                0.984451417      52.8188315      0.168246316     -63.1328972      0.168246428     -63.1329256      0.985875413     0.957877251
4.584                0.984403325       52.671933      0.168624551     -63.2124216      0.168624662     -63.2124495      0.985807992     0.943531782
4.585                0.984355112       52.524786      0.169003953     -63.2921096      0.169004063      -63.292137      0.985740212     0.929169926
4.586                0.984306764      52.3773894      0.169384519     -63.3719618      0.169384628     -63.3719889      0.985672074     0.914791694
4.587                0.984258265      52.2297423      0.169766248     -63.4519789      0.169766357     -63.4520056      0.985603576     0.900397098
4.588                  0.9842096      52.0818439      0.170149139     -63.5321614      0.170149247     -63.5321877      0.985534721     0.885986143
4.589                0.984160756      51.9336931      0.170533189     -63.6125098      0.170533296     -63.6125357      0.985465507     0.871558833
4.59                 0.984111717      51.7852891      0.170918398     -63.6930245      0.170918505       -63.69305      0.985395935     0.857115168
4.591                 0.98406247       51.636631      0.171304765      -63.773706       0.17130487     -63.7737311      0.985326005     0.842655146
4.592                0.984013001       51.487718      0.171692288     -63.8545546      0.171692392     -63.8545794      0.985255716     0.828178761
4.593                0.983963296      51.3385491      0.172080966     -63.9355706      0.172081069     -63.9355951       0.98518507     0.813686004
4.594                0.983913341      51.1891235      0.172470798     -64.0167545        0.1724709     -64.0167786      0.985114065     0.799176866
4.595                0.983863124      51.0394404      0.172861784     -64.0981064      0.172861885     -64.0981303      0.985042701     0.784651333
4.596                0.983812631      50.8894989      0.173253922     -64.1796267      0.173254022     -64.1796502      0.984970978     0.770109389
4.597                0.983761849      50.7392983      0.173647213     -64.2613155      0.173647312     -64.2613388      0.984898896     0.755551016
4.598                0.983710767      50.5888378      0.174041655     -64.3431731      0.174041753     -64.3431961      0.984826455     0.740976195
4.599                0.983659371      50.4381165      0.174437249     -64.4251996      0.174437346     -64.4252224      0.984753653     0.726384903
4.6                  0.983607649      50.2871337      0.174833993     -64.5073952      0.174834089     -64.5074177      0.984680491     0.711777116
4.601                 0.98355559      50.1358885      0.175231889     -64.5897601      0.175231983     -64.5897824      0.984606967     0.697152809
4.602                0.983503181      49.9843803      0.175630935     -64.6722943      0.175631029     -64.6723163      0.984533081     0.682511953
4.603                0.983450412      49.8326082      0.176031132      -64.754998      0.176031224     -64.7550198      0.984458833     0.667854519
4.604                 0.98339727      49.6805715       0.17643248     -64.8378711      0.176432571     -64.8378927      0.984384222     0.653180476
4.605                0.983343745      49.5282695      0.176834979     -64.9209139      0.176835069     -64.9209353      0.984309247     0.638489791
4.606                0.983289826      49.3757013      0.177238629     -65.0041263      0.177238718     -65.0041475      0.984233906     0.623782429
4.607                0.983235501      49.2228664      0.177643431     -65.0875083      0.177643519     -65.0875293        0.9841582     0.609058356
4.608                0.983180762      49.0697639      0.178049386     -65.1710601      0.178049472     -65.1710809      0.984082127     0.594317533
4.609                0.983125597       48.916393      0.178456493     -65.2547815      0.178456578     -65.2548021      0.984005687     0.579559923
4.61                 0.983069996      48.7627532      0.178864754     -65.3386726      0.178864837      -65.338693      0.983928877     0.564785486
4.611                0.983013949      48.6088436      0.179274169     -65.4227333      0.179274251     -65.4227536      0.983851698     0.549994182
4.612                0.982957447      48.4546636      0.179684739     -65.5069637       0.17968482     -65.5069839      0.983774148     0.535185967
4.613                 0.98290048      48.3002124      0.180096465     -65.5913637      0.180096545     -65.5913837      0.983696226       0.5203608
4.614                0.982843039      48.1454893      0.180509349     -65.6759332      0.180509427     -65.6759531      0.983617931     0.505518636
4.615                0.982785115      47.9904936      0.180923391     -65.7606723      0.180923468      -65.760692       0.98353926     0.490659431
4.616                0.982726699      47.8352247      0.181338592     -65.8455808      0.181338668     -65.8456004      0.983460214     0.475783139
4.617                0.982667781      47.6796817      0.181754954     -65.9306587      0.181755028     -65.9306782      0.983380791     0.460889713
4.618                0.982608355       47.523864      0.182172479      -66.015906      0.182172551     -66.0159253      0.983300989     0.445979105
4.619                 0.98254841      47.3677708      0.182591166     -66.1013224      0.182591238     -66.1013417      0.983220807     0.431051269
4.62                  0.98248794      47.2114015       0.18301102     -66.1869081       0.18301109     -66.1869273      0.983140243     0.416106154
4.621                0.982426936      47.0547554       0.18343204     -66.2726629      0.183432108      -66.272682      0.983059296     0.401143712
4.622                 0.98236539      46.8978318      0.183854228     -66.3585867      0.183854295     -66.3586057      0.982977965     0.386163892
4.623                0.982303295      46.7406299      0.184277587     -66.4446795      0.184277653     -66.4446984      0.982896247     0.371166645
4.624                0.982240642       46.583149      0.184702118     -66.5309411      0.184702182     -66.5309599      0.982814141     0.356151917
4.625                0.982177426      46.4253885      0.185127823     -66.6173716      0.185127886     -66.6173903      0.982731646     0.341119659
4.626                0.982113639      46.2673476      0.185554704     -66.7039707      0.185554765     -66.7039893       0.98264876     0.326069819
4.627                0.982049273      46.1090256      0.185982764     -66.7907384      0.185982823      -66.790757       0.98256548     0.311002342
4.628                0.981984322      45.9504218      0.186412004     -66.8776747      0.186412062     -66.8776932      0.982481805     0.295917178
4.629                0.981918779      45.7915355      0.186842426     -66.9647795      0.186842483     -66.9647979      0.982397734     0.280814273
4.63                 0.981852638      45.6323659      0.187274033     -67.0520526      0.187274088      -67.052071      0.982313264     0.265693573
4.631                0.981785893      45.4729124      0.187706828     -67.1394941      0.187706882     -67.1395124      0.982228394     0.250555025
4.632                0.981718537      45.3131742      0.188140812     -67.2271038      0.188140864      -67.227122      0.982143121     0.235398574
4.633                0.981650564      45.1531505      0.188575989     -67.3148816       0.18857604     -67.3148998      0.982057444     0.220224168
4.634                0.981581968      44.9928407       0.18901236     -67.4028276      0.189012409     -67.4028457       0.98197136     0.205031751
4.635                0.981512744      44.8322441      0.189449929     -67.4909416      0.189449977     -67.4909597      0.981884868     0.189821269
4.636                0.981442886      44.6713598      0.189888698     -67.5792236      0.189888744     -67.5792417      0.981797965     0.174592669
4.637                0.981372389      44.5101871       0.19032867     -67.6676735      0.190328715     -67.6676915      0.981710649     0.159345895
4.638                0.981301246      44.3487253      0.190769848     -67.7562913      0.190769891     -67.7563093      0.981622919     0.144080892
4.639                0.981229454      44.1869737      0.191212235     -67.8450769      0.191212276     -67.8450949      0.981534771     0.128797607
4.64                 0.981157006      44.0249314      0.191655833     -67.9340304      0.191655873     -67.9340483      0.981446205     0.113495985
4.641                0.981083899      43.8625977      0.192100646     -68.0231516      0.192100684     -68.0231695      0.981357216    0.0981759706
4.642                0.981010127      43.6999719      0.192546677     -68.1124405      0.192546713     -68.1124584      0.981267804    0.0828375103
4.643                0.980935685      43.5370531      0.192993929     -68.2018972      0.192993964      -68.201915      0.981177966    0.0674805496
4.644                0.980860569      43.3738407      0.193442404     -68.2915215      0.193442438     -68.2915393      0.981087699    0.0521050341
4.645                0.980784774      43.2103337      0.193892107     -68.3813135      0.193892139     -68.3813313      0.980997001    0.0367109099
4.646                0.980708297      43.0465315      0.194343041     -68.4712733      0.194343071      -68.471291       0.98090587    0.0212981229
4.647                0.980631132      42.8824332      0.194795209     -68.5614007      0.194795238     -68.5614185      0.980814303   0.00586661961
4.648                0.980553276       42.718038      0.195248614     -68.6516958      0.195248642     -68.6517136      0.980722298  -0.00958365362
4.649                0.980474725      42.5533452      0.195703261     -68.7421587      0.195703286     -68.7421764      0.980629852     -0.02505275
4.65                 0.980395474      42.3883538      0.196159152     -68.8327893      0.196159175      -68.832807      0.980536963   -0.0405407226
4.651                0.980315521      42.2230631       0.19661629     -68.9235877      0.196616313     -68.9236054      0.980443628   -0.0560476242
4.652                0.980234861      42.0574723      0.197074681     -69.0145539      0.197074701     -69.0145716      0.980349844   -0.0715735072
4.653                0.980153491      41.8915806      0.197534327      -69.105688      0.197534346     -69.1057057      0.980255609   -0.0871184236
4.654                0.980071407       41.725387      0.197995232     -69.1969901      0.197995249     -69.1970077      0.980160921    -0.102682425
4.655                0.979988605      41.5588908      0.198457399     -69.2884601      0.198457415     -69.2884777      0.980065776    -0.118265564
4.656                0.979905083       41.392091      0.198920834     -69.3800982      0.198920848     -69.3801159      0.979970171     -0.13386789
4.657                0.979820838      41.2249869      0.199385539     -69.4719045      0.199385551     -69.4719221      0.979874105    -0.149489455
4.658                0.979735865      41.0575775      0.199851518      -69.563879      0.199851529     -69.5638966      0.979777574    -0.165130309
4.659                0.979650162      40.8898621      0.200318776     -69.6560219      0.200318785     -69.6560395      0.979680575    -0.180790501
4.66                 0.979563727      40.7218396      0.200787316     -69.7483332      0.200787324     -69.7483508      0.979583106    -0.196470081
4.661                0.979476555      40.5535093      0.201257143     -69.8408131      0.201257149     -69.8408307      0.979485164    -0.212169098
4.662                0.979388645      40.3848701       0.20172826     -69.9334617      0.201728264     -69.9334793      0.979386745      -0.2278876
4.663                0.979299993      40.2159213      0.202200672     -70.0262791      0.202200674     -70.0262967      0.979287847    -0.243625636
4.664                0.979210597      40.0466619      0.202674382     -70.1192655      0.202674383     -70.1192831      0.979188467    -0.259383252
4.665                0.979120455       39.877091      0.203149396      -70.212421      0.203149395     -70.2124387      0.979088602    -0.275160495
4.666                0.979029563      39.7072076      0.203625717     -70.3057459      0.203625715     -70.3057635      0.978988249    -0.290957412
4.667                0.978937919      39.5370109      0.204103349     -70.3992401      0.204103345     -70.3992578      0.978887405    -0.306774049
4.668                 0.97884552      39.3664998      0.204582298     -70.4929041      0.204582292     -70.4929217      0.978786067     -0.32261045
4.669                0.978752365      39.1956734      0.205062566     -70.5867378      0.205062559     -70.5867554      0.978684231     -0.33846666
4.67                 0.978658452      39.0245308      0.205544159     -70.6807416      0.205544151     -70.6807592      0.978581895    -0.354342723
4.671                0.978563776       38.853071      0.206027081     -70.7749156      0.206027071     -70.7749332      0.978479056    -0.370238683
4.672                0.978468338      38.6812931      0.206511337       -70.86926      0.206511325     -70.8692776      0.978375709    -0.386154582
4.673                0.978372134      38.5091959      0.206996931     -70.9637751      0.206996917     -70.9637928      0.978271853    -0.402090462
4.674                0.978275162      38.3367786      0.207483867     -71.0584611      0.207483852     -71.0584788      0.978167484    -0.418046364
4.675                0.978177421      38.1640401      0.207972151     -71.1533183      0.207972134      -71.153336      0.978062598    -0.434022328
4.676                0.978078908      37.9909795      0.208461786     -71.2483469      0.208461767     -71.2483645      0.977957192    -0.450018396
4.677                0.977979622      37.8175956      0.208952777     -71.3435471      0.208952757     -71.3435648      0.977851263    -0.466034606
4.678                 0.97787956      37.6438876      0.209445129     -71.4389193      0.209445108     -71.4389369      0.977744808    -0.482070995
4.679                 0.97777872      37.4698542      0.209938847     -71.5344637      0.209938824     -71.5344813      0.977637824    -0.498127603
4.68                 0.977677101      37.2954946      0.210433936     -71.6301806      0.210433911     -71.6301982      0.977530306    -0.514204466
4.681                0.977574702      37.1208077      0.210930399     -71.7260703      0.210930373     -71.7260879      0.977422251    -0.530301619
4.682                0.977471519      36.9457923      0.211428243     -71.8221331      0.211428214     -71.8221507      0.977313657    -0.546419099
4.683                0.977367552      36.7704474      0.211927471     -71.9183693      0.211927441      -71.918387      0.977204519    -0.562556939
4.684                0.977262799       36.594772      0.212428088     -72.0147793      0.212428057      -72.014797      0.977094834    -0.578715174
4.685                0.977157258      36.4187648        0.2129301     -72.1113634      0.212930067     -72.1113811      0.976984598    -0.594893835
4.686                0.977050927       36.242425      0.213433511     -72.2081219      0.213433477     -72.2081396      0.976873809    -0.611092956
4.687                0.976943805      36.0657513      0.213938326     -72.3050553       0.21393829     -72.3050729      0.976762462    -0.627312567
4.688                0.976835891      35.8887426       0.21444455     -72.4021637      0.214444513     -72.4021814      0.976650554    -0.643552698
4.689                0.976727182      35.7113978      0.214952188     -72.4994478      0.214952149     -72.4994654      0.976538081    -0.659813378
4.69                 0.976617678      35.5337158      0.215461246     -72.5969077      0.215461205     -72.5969254      0.976425039    -0.676094636
4.691                0.976507376      35.3556954      0.215971727     -72.6945439      0.215971684     -72.6945616      0.976311425      -0.6923965
4.692                0.976396275      35.1773354      0.216483637     -72.7923568      0.216483593     -72.7923745      0.976197236    -0.708718995
4.693                0.976284374      34.9986348       0.21699698     -72.8903469      0.216996935     -72.8903646      0.976082467    -0.725062147
4.694                0.976171671      34.8195923      0.217511763     -72.9885144      0.217511716     -72.9885321      0.975967114     -0.74142598
4.695                0.976058165      34.6402068       0.21802799       -73.08686      0.218027942     -73.0868776      0.975851174    -0.757810519