! TOUCHSTONE file generated by CST MICROWAVE STUDIO
! Date and time: Wed Mar  5 20:28:54 2025
! Project name: CONN_LARGO_BW_6a8ymedio.cst
! Parameters = {Lc4=5.21069; Cz=-26.0138; H=17; Hbl=9.99467; Hbt=5.00778; Hl=7.50132; Hposte=1.00357; Hposte2=1.00245; Ht=8.345; L=2; Lb1=2; Lb2=3.40895; Lc1=2.23718; Lc2=8.77664; Lc3=0.352447; Ldielectrico=9.906; Lextra=14.98; Lextra2=17.87; Lp1=7; Lp2=8; Lp3=2; Pb2=0; Rposte=1.18983; Rposte2=1.18983; W=34; W2=29.8733; Wb=27.6506; Zup=6.5; aux_p1=3.5; aux_p2=-9.73718; despx=-4.62308; dxposte=5.02856; dxposte2=5.02856; opcion=0; posb=-30.3663; target=-24; thickness=2}
! Header version: 2018
! Port assignment regex: !\s*Touchstone port\s*([0-9]+)\s*=\s*(CST MWS port|CST DS port)\s*([0-9]+|Zmin|Zmax)\s*\(\"(.*)\"\)(\s*mode\s*([0-9]+))?.*
! Touchstone port assignment:
! Touchstone port 1 = CST MWS port 1 ("")
! Touchstone port 2 = CST MWS port 2 ("")
# GHz S MA R 50
4.5                  0.998167934     -18.9492497     0.0510964822     -97.1851887     0.0510964816     -97.1851648      0.998692919      4.58101246
4.501                0.998164945     -19.0662857     0.0511866581     -97.2503514     0.0511867066     -97.2504342      0.998690429      4.57242026
4.502                0.998161827     -19.1833716     0.0512769677     -97.3153938     0.0512770618     -97.3155757      0.998687784       4.5637983
4.503                0.998158585     -19.3005076     0.0513674165     -97.3803228     0.0513675529     -97.3805963      0.998684989      4.55514799
4.504                0.998155223     -19.4176939     0.0514580095     -97.4451447     0.0514581852     -97.4455031       0.99868205      4.54647069
4.505                0.998151746     -19.5349306     0.0515487516      -97.509866     0.0515489637     -97.5103027      0.998678972      4.53776765
4.506                0.998148157     -19.6522178     0.0516396476     -97.5744927     0.0516398932     -97.5750014      0.998675762      4.52904008
4.507                 0.99814446     -19.7695558     0.0517307017     -97.6390304     0.0517309783     -97.6396054      0.998672424       4.5202891
4.508                0.998140659     -19.8869447     0.0518219182     -97.7034849     0.0518222233     -97.7041204      0.998668963       4.5115158
4.509                0.998136758     -20.0043846     0.0519133009     -97.7678614     0.0519136321     -97.7685521      0.998665383      4.50272118
4.51                 0.998132759     -20.1218757     0.0520048537     -97.8321651     0.0520052088      -97.832906       0.99866169      4.49390621
4.511                0.998128667     -20.2394182     0.0520965802     -97.8964008     0.0520969569     -97.8971871      0.998657887      4.48507178
4.512                0.998124485     -20.3570123     0.0521884836     -97.9605733       0.05218888     -97.9614005      0.998653979      4.47621875
4.513                0.998120215      -20.474658     0.0522805673     -98.0246872     0.0522809813     -98.0255509       0.99864997      4.46734793
4.514                 0.99811586     -20.5923555     0.0523728343     -98.0887466     0.0523732642      -98.089643      0.998645862      4.45846009
4.515                0.998111424      -20.710105     0.0524652874     -98.1527559     0.0524657315      -98.153681      0.998641661      4.44955594
4.516                0.998106909     -20.8279067     0.0525579296     -98.2167191     0.0525583862     -98.2176693      0.998637369      4.44063619
4.517                0.998102318     -20.9457607     0.0526507634     -98.2806399     0.0526512309     -98.2816118       0.99863299      4.43170146
4.518                0.998097653     -21.0636671     0.0527437913     -98.3445221     0.0527442683     -98.3455124      0.998628527      4.42275238
4.519                0.998092917     -21.1816262     0.0528370158     -98.4083693     0.0528375008     -98.4093749      0.998623983      4.41378951
4.52                 0.998088111      -21.299638     0.0529304392     -98.4721847     0.0529309309     -98.4732029      0.998619361      4.40481342
4.521                0.998083239     -21.4177027     0.0530240636     -98.5359718     0.0530245608     -98.5369998      0.998614663      4.39582461
4.522                0.998078303     -21.5358205     0.0531178911     -98.5997335     0.0531183927     -98.6007688      0.998609893      4.38682358
4.523                0.998073304     -21.6539915     0.0532119238      -98.663473     0.0532124286     -98.6645131      0.998605053      4.37781078
4.524                0.998068245     -21.7722159     0.0533061636     -98.7271932     0.0533066705     -98.7282358      0.998600145      4.36878665
4.525                0.998063127     -21.8904938     0.0534006122     -98.7908967     0.0534011203     -98.7919398      0.998595172      4.35975161
4.526                0.998057952     -22.0088254     0.0534952716     -98.8545862     0.0534957799     -98.8556278      0.998590137      4.35070603
4.527                0.998052723     -22.1272108     0.0535901433     -98.9182644     0.0535906509     -98.9193025       0.99858504       4.3416503
4.528                 0.99804744     -22.2456501      0.053685229     -98.9819336     0.0536857351     -98.9829665      0.998579884      4.33258476
4.529                0.998042106     -22.3641436     0.0537805302     -99.0455962      0.053781034     -99.0466223      0.998574672      4.32350974
4.53                 0.998036722     -22.4826914     0.0538760484     -99.1092545     0.0538765493     -99.1102722      0.998569405      4.31442554
4.531                0.998031289     -22.6012936     0.0539717852     -99.1729105     0.0539722823     -99.1739185      0.998564085      4.30533245
4.532                 0.99802581     -22.7199503     0.0540677418     -99.2365665     0.0540682346     -99.2375634      0.998558713      4.29623076
4.533                0.998020284     -22.8386618     0.0541639196     -99.3002243     0.0541644074     -99.3012088      0.998553292      4.28712072
4.534                0.998014714     -22.9574282     0.0542603198     -99.3638859     0.0542608022     -99.3648569      0.998547823      4.27800258
4.535                0.998009102     -23.0762495     0.0543569439      -99.427553     0.0543574203     -99.4285095      0.998542307      4.26887656
4.536                0.998003447      -23.195126     0.0544537928     -99.4912276     0.0544542627     -99.4921685      0.998536746      4.25974289
4.537                0.997997752     -23.3140579     0.0545508679     -99.5549112     0.0545513309     -99.5558357      0.998531141      4.25060176
4.538                0.997992017     -23.4330452     0.0546481703     -99.6186054     0.0546486258     -99.6195126      0.998525493      4.24145337
4.539                0.997986243      -23.552088     0.0547457009     -99.6823118     0.0547461487      -99.683201      0.998519804       4.2322979
4.54                 0.997980432     -23.6711867      0.054843461     -99.7460319     0.0548439007     -99.7469023      0.998514076      4.22313552
4.541                0.997974585     -23.7903412     0.0549414515     -99.8097671     0.0549418828     -99.8106181      0.998508308      4.21396639
4.542                0.997968702     -23.9095518     0.0550396734     -99.8735187     0.0550400959     -99.8743498      0.998502503      4.20479065
4.543                0.997962784     -24.0288185     0.0551381278     -99.9372881     0.0551385413     -99.9380987       0.99849666      4.19560844
4.544                0.997956833     -24.1481416     0.0552368155     -100.001076     0.0552372197     -100.001866      0.998490783      4.18641991
4.545                0.997950849     -24.2675212     0.0553357376     -100.064885     0.0553361323     -100.065653       0.99848487      4.17722516
4.546                0.997944832     -24.3869574     0.0554348948     -100.128715     0.0554352798     -100.129462      0.998478923      4.16802431
4.547                0.997938784     -24.5064504     0.0555342882     -100.192567     0.0555346633     -100.193292      0.998472943      4.15881748
4.548                0.997932705     -24.6260002     0.0556339185     -100.256443     0.0556342835     -100.257145      0.998466931      4.14960475
4.549                0.997926596     -24.7456072     0.0557337866     -100.320343     0.0557341414     -100.321023      0.998460887      4.14038623
4.55                 0.997920457     -24.8652713     0.0558338934     -100.384269     0.0558342379     -100.384926      0.998454813      4.13116199
4.551                 0.99791429     -24.9849928     0.0559342397     -100.448221     0.0559345737     -100.448855      0.998448708      4.12193211
4.552                0.997908094     -25.1047718     0.0560348262       -100.5122     0.0560351498     -100.512811      0.998442574      4.11269668
4.553                0.997901871     -25.2246084     0.0561356539     -100.576208     0.0561359668     -100.576796      0.998436412      4.10345575
4.554                 0.99789562     -25.3445028     0.0562367234     -100.640244     0.0562370256     -100.640809      0.998430221       4.0942094
4.555                0.997889343     -25.4644551     0.0563380355      -100.70431      0.056338327     -100.704851      0.998424002      4.08495767
4.556                0.997883039     -25.5844655      0.056439591     -100.768406     0.0564398718     -100.768924      0.998417756      4.07570062
4.557                0.997876709     -25.7045341     0.0565413907     -100.832533     0.0565416607     -100.833028      0.998411484       4.0664383
4.558                0.997870354     -25.8246611     0.0566434352     -100.896692     0.0566436944     -100.897164      0.998405185      4.05717076
4.559                0.997863974     -25.9448466     0.0567457254     -100.960884     0.0567459738     -100.961333      0.998398861      4.04789802
4.56                 0.997857569     -26.0650907     0.0568482619     -101.025108     0.0568484995     -101.025534      0.998392511      4.03862014
4.561                 0.99785114     -26.1853936     0.0569510455     -101.089366     0.0569512723     -101.089769      0.998386136      4.02933713
4.562                0.997844687     -26.3057554     0.0570540768     -101.153658      0.057054293     -101.154039      0.998379737      4.02004903
4.563                 0.99783821     -26.4261763     0.0571573567     -101.217985     0.0571575621     -101.218343      0.998373314      4.01075586
4.564                0.997831709     -26.5466565     0.0572608857     -101.282347     0.0572610805     -101.282682      0.998366866      4.00145765
4.565                0.997825185      -26.667196     0.0573646646     -101.346745     0.0573648489     -101.347058      0.998360395      3.99215441
4.566                0.997818639      -26.787795     0.0574686942     -101.411178     0.0574688679     -101.411469      0.998353901      3.98284615
4.567                0.997812069     -26.9084537      0.057572975     -101.475648     0.0575731383     -101.475918      0.998347383       3.9735329
4.568                0.997805477     -27.0291721     0.0576775078     -101.540155     0.0576776608     -101.540403      0.998340843      3.96421467
4.569                0.997798863     -27.1499506     0.0577822932       -101.6047      0.057782436     -101.604926       0.99833428      3.95489145
4.57                 0.997792226     -27.2707891      0.057887332     -101.669282     0.0578874646     -101.669488      0.998327695      3.94556325
4.571                0.997785567     -27.3916878     0.0579926249     -101.733902     0.0579927474     -101.734087      0.998321087      3.93623009
4.572                0.997778887     -27.5126469     0.0580981725     -101.798561      0.058098285     -101.798725      0.998314457      3.92689196
4.573                0.997772184     -27.6336665     0.0582039755     -101.863258     0.0582040782     -101.863402      0.998307806      3.91754885
4.574                 0.99776546     -27.7547468     0.0583100346     -101.927994     0.0583101275     -101.928119      0.998301132      3.90820077
4.575                0.997758714     -27.8758879     0.0584163504      -101.99277     0.0584164338     -101.992875      0.998294437      3.89884771
4.576                0.997751947       -27.99709     0.0585229238     -102.057585     0.0585229976     -102.057671       0.99828772      3.88948967
4.577                0.997745158     -28.1183531     0.0586297552      -102.12244     0.0586298197     -102.122507      0.998280982      3.88012663
4.578                0.997738348     -28.2396775     0.0587368456     -102.187336     0.0587369007     -102.187383      0.998274222       3.8707586
4.579                0.997731516     -28.3610633     0.0588441954     -102.252271     0.0588442414     -102.252301      0.998267441      3.86138555
4.58                 0.997724663     -28.4825107     0.0589518054     -102.317247     0.0589518425     -102.317259      0.998260638      3.85200747
4.581                0.997717788     -28.6040197     0.0590596763     -102.382264     0.0590597046     -102.382258      0.998253814      3.84262435
4.582                0.997710893     -28.7255905     0.0591678088     -102.447322     0.0591678284     -102.447298      0.998246969      3.83323618
4.583                0.997703975     -28.8472233     0.0592762036     -102.512421     0.0592762146      -102.51238      0.998240102      3.82384294
4.584                0.997697037     -28.9689183     0.0593848614     -102.577561     0.0593848639     -102.577504      0.998233215      3.81444462
4.585                0.997690077     -29.0906754     0.0594937828     -102.642743     0.0594937771      -102.64267      0.998226306      3.80504118
4.586                0.997683096     -29.2124951     0.0596029686     -102.707967     0.0596029548     -102.707877      0.998219375      3.79563262
4.587                0.997676093     -29.3343772     0.0597124195     -102.773232     0.0597123977     -102.773127      0.998212424      3.78621892
4.588                0.997669068     -29.4563221     0.0598221361     -102.838539     0.0598221065     -102.838419      0.998205451      3.77680005
4.589                0.997662022     -29.5783298     0.0599321193     -102.903889      0.059932082     -102.903753      0.998198457      3.76737599
4.59                 0.997654955     -29.7004006     0.0600423696      -102.96928     0.0600423248      -102.96913      0.998191441      3.75794671
4.591                0.997647865     -29.8225345     0.0601528878     -103.034714     0.0601528356      -103.03455      0.998184404      3.74851221
4.592                0.997640754     -29.9447316     0.0602636747      -103.10019     0.0602636153     -103.100012      0.998177345      3.73907244
4.593                0.997633621     -30.0669923     0.0603747309     -103.165709     0.0603746644     -103.165517      0.998170264      3.72962739
4.594                0.997626466     -30.1893165     0.0604860572     -103.231271     0.0604859838     -103.231065      0.998163162      3.72017703
4.595                0.997619288     -30.3117045     0.0605976543     -103.296875     0.0605975741     -103.296657      0.998156038      3.71072133
4.596                0.997612088     -30.4341563     0.0607095229     -103.362521     0.0607094362     -103.362291      0.998148891      3.70126027
4.597                0.997604866     -30.5566722     0.0608216637     -103.428211     0.0608215706     -103.427969      0.998141723      3.69179382
4.598                0.997597622     -30.6792523     0.0609340776     -103.493944     0.0609339782     -103.493689      0.998134533      3.68232195
4.599                0.997590354     -30.8018967     0.0610467652     -103.559719     0.0610466597     -103.559454       0.99812732      3.67284464
4.6                  0.997583064     -30.9246057     0.0611597273     -103.625538     0.0611596158     -103.625261      0.998120085      3.66336184
4.601                0.997575751     -31.0473792     0.0612729647       -103.6914     0.0612728474     -103.691112      0.998112828      3.65387355
4.602                0.997568415     -31.1702176     0.0613864781     -103.757305      0.061386355     -103.757007      0.998105548      3.64437972
4.603                0.997561056     -31.2931209     0.0615002682     -103.823253     0.0615001397     -103.822945      0.998098245      3.63488033
4.604                0.997553673     -31.4160893     0.0616143358     -103.889244     0.0616142019     -103.888926      0.998090919      3.62537535
4.605                0.997546266     -31.5391229     0.0617286818     -103.955279     0.0617285427     -103.954951       0.99808357      3.61586474
4.606                0.997538836      -31.662222     0.0618433068     -104.021357     0.0618431626      -104.02102      0.998076197      3.60634847
4.607                0.997531382     -31.7853866     0.0619582116     -104.087479     0.0619580625     -104.087133      0.998068801      3.59682652
4.608                0.997523904     -31.9086169     0.0620733971     -104.153643     0.0620732433     -104.153289      0.998061382      3.58729885
4.609                0.997516401     -32.0319131      0.062188864     -104.219852     0.0621887055     -104.219489      0.998053939      3.57776543
4.61                 0.997508874     -32.1552753      0.062304613     -104.286103     0.0623044501     -104.285733      0.998046472      3.56822624
4.611                0.997501322     -32.2787036     0.0624206451     -104.352398     0.0624204779      -104.35202      0.998038981      3.55868122
4.612                0.997493745     -32.4021983      0.062536961     -104.418737     0.0625367896     -104.418352      0.998031465      3.54913037
4.613                0.997486143     -32.5257595     0.0626535614     -104.485119      0.062653386     -104.484727      0.998023925      3.53957363
4.614                0.997478516     -32.6493872     0.0627704473     -104.551545      0.062770268     -104.551146       0.99801636      3.53001099
4.615                0.997470863     -32.7730818     0.0628876194     -104.618014     0.0628874363     -104.617609      0.998008771       3.5204424
4.616                0.997463185     -32.8968433     0.0630050785     -104.684527     0.0630048919     -104.684115      0.998001156      3.51086784
4.617                 0.99745548      -33.020672     0.0631228255     -104.751083     0.0631226354     -104.750666      0.997993517      3.50128727
4.618                 0.99744775     -33.1445678     0.0632408612     -104.817683     0.0632406677      -104.81726      0.997985851      3.49170065
4.619                0.997439993     -33.2685311     0.0633591864     -104.884327     0.0633589897     -104.883898       0.99797816      3.48210796
4.62                 0.997432209      -33.392562      0.063477802     -104.951014     0.0634776023      -104.95058      0.997970444      3.47250917
4.621                0.997424399     -33.5166606     0.0635967087     -105.017744     0.0635965061     -105.017306      0.997962701      3.46290423
4.622                0.997416561     -33.6408271     0.0637159076     -105.084519     0.0637157021     -105.084076      0.997954931      3.45329312
4.623                0.997408696     -33.7650617     0.0638353993     -105.151337     0.0638351912      -105.15089      0.997947136       3.4436758
4.624                0.997400804     -33.8893644     0.0639551848     -105.218198     0.0639549742     -105.217747      0.997939313      3.43405223
4.625                0.997392884     -34.0137356     0.0640752649     -105.285103     0.0640750519     -105.284649      0.997931464      3.42442239
4.626                0.997384935     -34.1381752     0.0641956405     -105.352052     0.0641954252     -105.351594      0.997923587      3.41478625
4.627                0.997376959     -34.2626836     0.0643163125     -105.419044      0.064316095     -105.418583      0.997915683      3.40514375
4.628                0.997368954     -34.3872608     0.0644372817      -105.48608     0.0644370622     -105.485616      0.997907752      3.39549489
4.629                 0.99736092      -34.511907     0.0645585491      -105.55316     0.0645583276     -105.552693      0.997899792      3.38583961
4.63                 0.997352857     -34.6366224     0.0646801154     -105.620283     0.0646798922     -105.619814      0.997891805      3.37617789
4.631                0.997344765     -34.7614072     0.0648019817      -105.68745     0.0648017567     -105.686978      0.997883789      3.36650969
4.632                0.997336644     -34.8862614     0.0649241487     -105.754661     0.0649239222     -105.754187      0.997875744      3.35683497
4.633                0.997328492     -35.0111853     0.0650466175     -105.821915     0.0650463895     -105.821439      0.997867671      3.34715372
4.634                0.997320311     -35.1361791     0.0651693888     -105.889213     0.0651691595     -105.888735      0.997859569      3.33746588
4.635                0.997312099     -35.2612428     0.0652924637     -105.956554     0.0652922332     -105.956075      0.997851437      3.32777143
4.636                0.997303857     -35.3863768      0.065415843     -106.023939     0.0654156113     -106.023459      0.997843276      3.31807033
4.637                0.997295584      -35.511581     0.0655395277     -106.091368      0.065539295     -106.090886      0.997835085      3.30836256
4.638                 0.99728728     -35.6368558     0.0656635187      -106.15884      0.065663285     -106.158358      0.997826864      3.29864806
4.639                0.997278945     -35.7622012     0.0657878168     -106.226356     0.0657875824     -106.225873      0.997818613      3.28892682
4.64                 0.997270578     -35.8876175     0.0659124232     -106.293916      0.065912188     -106.293432      0.997810332       3.2791988
4.641                0.997262179     -36.0131047     0.0660373386     -106.361519     0.0660371028     -106.361035      0.997802019      3.26946396
4.642                0.997253748     -36.1386631     0.0661625641     -106.429166     0.0661623278     -106.428682      0.997793676      3.25972228
4.643                0.997245285     -36.2642929     0.0662881005     -106.496856     0.0662878639     -106.496373      0.997785301       3.2499737
4.644                0.997236789     -36.3899942     0.0664139489     -106.564591      0.066413712     -106.564107      0.997776895      3.24021822
4.645                 0.99722826     -36.5157672     0.0665401103     -106.632368     0.0665398731     -106.631885      0.997768457      3.23045578
4.646                0.997219697      -36.641612     0.0666665855      -106.70019     0.0666663481     -106.699708      0.997759987      3.22068636
4.647                0.997211102     -36.7675288     0.0667933756     -106.768055     0.0667931382     -106.767574      0.997751485      3.21090992
4.648                0.997202472     -36.8935179     0.0669204815     -106.835964     0.0669202441     -106.835484       0.99774295      3.20112643
4.649                0.997193809     -37.0195793     0.0670479042     -106.903917      0.067047667     -106.903437      0.997734382      3.19133585
4.65                 0.997185111     -37.1457133     0.0671756447     -106.971913     0.0671754077     -106.971435      0.997725781      3.18153816
4.651                0.997176379       -37.27192      0.067303704     -107.039953     0.0673034673     -107.039476      0.997717147      3.17173331
4.652                0.997167611     -37.3981995     0.0674320831     -107.108037     0.0674318468     -107.107562      0.997708479      3.16192128
4.653                0.997158809     -37.5245522      0.067560783     -107.176165     0.0675605472     -107.175691      0.997699778      3.15210203
4.654                0.997149971     -37.6509781     0.0676898047     -107.244336     0.0676895694     -107.243864      0.997691042      3.14227553
4.655                0.997141098     -37.7774774     0.0678191492     -107.312551     0.0678189145     -107.312081      0.997682272      3.13244175
4.656                0.997132188     -37.9040503     0.0679488176      -107.38081     0.0679485836     -107.380342      0.997673467      3.12260064
4.657                0.997123242      -38.030697     0.0680788108     -107.449113     0.0680785776     -107.448647      0.997664627      3.11275219
4.658                 0.99711426     -38.1574177     0.0682091299      -107.51746     0.0682088975     -107.516996      0.997655752      3.10289635
4.659                0.997105241     -38.2842124     0.0683397759      -107.58585     0.0683395444     -107.585389      0.997646841      3.09303309
4.66                 0.997096185     -38.4110816     0.0684707499     -107.654285     0.0684705193     -107.653826      0.997637895      3.08316238
4.661                0.997087091     -38.5380252     0.0686020528     -107.722763     0.0686018233     -107.722307      0.997628913      3.07328419
4.662                0.997077959     -38.6650434     0.0687336858     -107.791285     0.0687334575     -107.790832      0.997619894      3.06339847
4.663                 0.99706879     -38.7921366       0.06886565     -107.859851     0.0688654228     -107.859401      0.997610839      3.05350521
4.664                0.997059582     -38.9193048     0.0689979462     -107.928461     0.0689977203     -107.928014      0.997601747      3.04360437
4.665                0.997050336     -39.0465482     0.0691305757     -107.997115      0.069130351     -107.996671      0.997592617      3.03369591
4.666                0.997041051      -39.173867     0.0692635395     -108.065814     0.0692633162     -108.065372      0.997583451       3.0237798
4.667                0.997031727     -39.3012614     0.0693968387     -108.134556     0.0693966168     -108.134118      0.997574246        3.013856
4.668                0.997022363     -39.4287317     0.0695304742     -108.203342     0.0695302538     -108.202907      0.997565004       3.0039245
4.669                 0.99701296     -39.5562778     0.0696644474     -108.272172     0.0696642285     -108.271741      0.997555723      2.99398524
4.67                 0.997003517     -39.6839002     0.0697987591     -108.341047     0.0697985418     -108.340619      0.997546404       2.9840382
4.671                0.996994033     -39.8115988     0.0699334106     -108.409966     0.0699331949     -108.409542      0.997537046      2.97408335
4.672                0.996984509      -39.939374     0.0700684028     -108.478929     0.0700681888     -108.478508      0.997527649      2.96412066
4.673                0.996974944     -40.0672259      0.070203737     -108.547936     0.0702035248     -108.547519      0.997518212      2.95415008
4.674                0.996965338     -40.1951548     0.0703394142     -108.616987     0.0703392037     -108.616575      0.997508736      2.94417159
4.675                 0.99695569     -40.3231607     0.0704754355     -108.686083     0.0704752269     -108.685675       0.99749922      2.93418516
4.676                   0.996946     -40.4512439     0.0706118022     -108.755223     0.0706115954     -108.754819      0.997489663      2.92419075
4.677                0.996936269     -40.5794046     0.0707485151     -108.824408     0.0707483103     -108.824007      0.997480066      2.91418833
4.678                0.996926495      -40.707643     0.0708855756     -108.893637     0.0708853728     -108.893241      0.997470428      2.90417787
4.679                0.996916678     -40.8359592     0.0710229848     -108.962911      0.071022784     -108.962518      0.997460749      2.89415933
4.68                 0.996906819     -40.9643535     0.0711607437     -109.032229      0.071160545     -109.031841      0.997451028      2.88413268
4.681                0.996896916     -41.0928261     0.0712988536     -109.101592     0.0712986569     -109.101208      0.997441266       2.8740979
4.682                 0.99688697     -41.2213771     0.0714373156     -109.170999      0.071437121      -109.17062      0.997431462      2.86405494
4.683                 0.99687698     -41.3500068     0.0715761308     -109.240451     0.0715759384     -109.240076      0.997421616      2.85400377
4.684                0.996866945     -41.4787153     0.0717153004     -109.309948     0.0717151102     -109.309578      0.997411726      2.84394437
4.685                0.996856867     -41.6075028     0.0718548256      -109.37949     0.0718546377     -109.379124      0.997401794       2.8338767
4.686                0.996846743     -41.7363696     0.0719947076     -109.449077     0.0719945219     -109.448715      0.997391819      2.82380072
4.687                0.996836575     -41.8653159     0.0721349474     -109.518708     0.0721347641     -109.518351      0.997381801      2.81371641
4.688                0.996826361     -41.9943418     0.0722755464     -109.588385     0.0722753654     -109.588032      0.997371738      2.80362373
4.689                0.996816102     -42.1234475     0.0724165057     -109.658106      0.072416327     -109.657758      0.997361632      2.79352264
4.69                 0.996805796     -42.2526333     0.0725578264     -109.727873     0.0725576501      -109.72753      0.997351481      2.78341313
4.691                0.996795445     -42.3818993     0.0726995098     -109.797684     0.0726993359     -109.797346      0.997341285      2.77329515
4.692                0.996785047     -42.5112458     0.0728415571     -109.867541     0.0728413857     -109.867208      0.997331044      2.76316867
4.693                0.996774602     -42.6406729     0.0729839695     -109.937444     0.0729838006     -109.937115      0.997320759      2.75303366
4.694                0.996764109     -42.7701809     0.0731267483     -110.007391     0.0731265818     -110.007067      0.997310427      2.74289008
4.695                 0.99675357       -42.89977     0.0732698945     -110.077384     0.0732697305     -110.077065       0.99730005      2.73273791