! TOUCHSTONE file generated by CST MICROWAVE STUDIO
! Date and time: Wed Jan 22 20:09:23 2025
! Project name: NUEVA_TRANSICION_CORTO.cst
! Parameters = {DespTor=4.318; H=17; Hcono=2.59394; Hstep1=13.4144; Hstep2=6.31893; Hstep3=0; Htuerca=0.1; L=55; Lback=11; Ldielectrico=9.525; Lstep1=12.9914; Lstep2=10.8318; Lstep3=9.99957; Ltor=4; Nsegments=0; Ragujero=1.4615; Rcono1=4.39874; Rcono2=2.78582; Rext=2.055; Rint=0.635; Rtor=1.275; Rtuerca=2.451; Target=-30; W=34; lopt1=0.632257; lopt2=6.83182; lopt3=5.99957; rrcono2=2.78582; thickness=2; topthickness=3}
! Header version: 2018
! Port assignment regex: !\s*Touchstone port\s*([0-9]+)\s*=\s*(CST MWS port|CST DS port)\s*([0-9]+|Zmin|Zmax)\s*\(\"(.*)\"\)(\s*mode\s*([0-9]+))?.*
! Touchstone port assignment:
! Touchstone port 1 = CST MWS port 1 ("")
! Touchstone port 2 = CST MWS port 2 ("")
# GHz S RI R 50
4                   -0.217312725    -0.974674071    -0.0360533863     0.038575577     0.0360450709   -0.0385740178      0.987121099     0.151012326
4.0016              -0.219843248    -0.974102511    -0.0360549958    0.0386881972     0.0360466167   -0.0386870782      0.987148315     0.150798036
4.0032              -0.222373421    -0.973524085     -0.036056505    0.0388010253     0.0360480541   -0.0388003399      0.987175491      0.15058375
4.0048              -0.224903221    -0.972938787    -0.0360579138    0.0389140628     0.0360493831   -0.0389138045      0.987202626     0.150369467
4.0064               -0.22743263    -0.972346611     -0.036059222    0.0390273114     0.0360506037   -0.0390274733      0.987229721     0.150155186
4.008               -0.229961627    -0.971747555    -0.0360604295    0.0391407728     0.0360517157    -0.039141348      0.987256775     0.149940906
4.0096              -0.232490192    -0.971141611    -0.0360615361    0.0392544486     0.0360527191   -0.0392554299      0.987283789     0.149726628
4.0112              -0.235018304    -0.970528776    -0.0360625414    0.0393683404     0.0360536139   -0.0393697207      0.987310763     0.149512349
4.0128              -0.237545945    -0.969909045    -0.0360634453    0.0394824499     0.0360543998   -0.0394842219      0.987337697      0.14929807
4.0144              -0.240073093    -0.969282413    -0.0360642474    0.0395967788     0.0360550768    -0.039598935      0.987364592     0.149083789
4.016               -0.242599729    -0.968648875    -0.0360649475    0.0397113288     0.0360556446   -0.0397138615      0.987391446     0.148869506
4.0176              -0.245125831    -0.968008428    -0.0360655451    0.0398261016     0.0360561031   -0.0398290032      0.987418262      0.14865522
4.0192              -0.247651381    -0.967361065    -0.0360660399     0.039941099      0.036056452   -0.0399443615      0.987445037      0.14844093
4.0208              -0.250176358    -0.966706784    -0.0360664315    0.0400563225     0.0360566911   -0.0400599381      0.987471774     0.148226636
4.0224              -0.252700741    -0.966045579    -0.0360667194    0.0401717741     0.0360568201   -0.0401757346      0.987498471     0.148012337
4.024               -0.255224511    -0.965377446    -0.0360669033    0.0402874554     0.0360568386   -0.0402917526      0.987525129     0.147798031
4.0256              -0.257747647    -0.964702381    -0.0360669825    0.0404033681     0.0360567465   -0.0404079937      0.987551749     0.147583719
4.0272              -0.260270128     -0.96402038    -0.0360669565    0.0405195141     0.0360565433   -0.0405244596      0.987578329     0.147369399
4.0288              -0.262791936    -0.963331438    -0.0360668249    0.0406358951     0.0360562286    -0.040641152       0.98760487      0.14715507
4.0304              -0.265313049    -0.962635551     -0.036066587    0.0407525128      0.036055802   -0.0407580724      0.987631373     0.146940732
4.032               -0.267833447    -0.961932716    -0.0360662422    0.0408693691     0.0360552631   -0.0408752227      0.987657837     0.146726384
4.0336               -0.27035311    -0.961222928    -0.0360657899    0.0409864658     0.0360546114   -0.0409926044      0.987684262     0.146512025
4.0352              -0.272872017    -0.960506184    -0.0360652293    0.0411038045     0.0360538464   -0.0411102192      0.987710648     0.146297655
4.0368               -0.27539015    -0.959782479    -0.0360645598    0.0412213871     0.0360529676   -0.0412280688      0.987736996     0.146083272
4.0384              -0.277907486     -0.95905181    -0.0360637805    0.0413392155     0.0360519744    -0.041346155      0.987763305     0.145868875
4.04                -0.280424006    -0.958314173    -0.0360628908    0.0414572913     0.0360508662   -0.0414644795      0.987789575     0.145654464
4.0416               -0.28293969    -0.957569565    -0.0360618899    0.0415756165     0.0360496425   -0.0415830439      0.987815806     0.145440039
4.0432              -0.285454517    -0.956817981    -0.0360607768    0.0416941927     0.0360483025   -0.0417018499      0.987841999     0.145225597
4.0448              -0.287968468    -0.956059418    -0.0360595506    0.0418130218     0.0360468457   -0.0418208994      0.987868153     0.145011138
4.0464              -0.290481521    -0.955293872    -0.0360582106    0.0419321056     0.0360452712   -0.0419401939      0.987894268     0.144796662
4.048               -0.292993658    -0.954521341    -0.0360567557    0.0420514459     0.0360435784   -0.0420597353      0.987920344     0.144582167
4.0496              -0.295504857     -0.95374182    -0.0360551849    0.0421710444     0.0360417664   -0.0421795252       0.98794638     0.144367652
4.0512              -0.298015099    -0.952955306    -0.0360534972    0.0422909031     0.0360398345   -0.0422995654      0.987972378     0.144153118
4.0528              -0.300524362    -0.952161797    -0.0360516916    0.0424110236     0.0360377818   -0.0424198577      0.987998337     0.143938562
4.0544              -0.303032628    -0.951361288     -0.036049767    0.0425314077     0.0360356075   -0.0425404036      0.988024256     0.143723984
4.056               -0.305539876    -0.950553776    -0.0360477223    0.0426520573     0.0360333106   -0.0426612051      0.988050136     0.143509383
4.0576              -0.308046086    -0.949739259    -0.0360455563    0.0427729741     0.0360308903   -0.0427822637      0.988075976     0.143294759
4.0592              -0.310551238    -0.948917732    -0.0360432678    0.0428941599     0.0360283455   -0.0429035812      0.988101776     0.143080109
4.0608              -0.313055312    -0.948089194    -0.0360408556    0.0430156163     0.0360256753   -0.0430251594      0.988127536     0.142865434
4.0624              -0.315558287     -0.94725364    -0.0360383184    0.0431373453     0.0360228786   -0.0431469999      0.988153256     0.142650733
4.064               -0.318060144    -0.946411069    -0.0360356549    0.0432593485     0.0360199543   -0.0432691044      0.988178936     0.142436004
4.0656              -0.320560863    -0.945561476    -0.0360328638    0.0433816276     0.0360169014   -0.0433914748      0.988204575     0.142221247
4.0672              -0.323060424     -0.94470486    -0.0360299437    0.0435041844     0.0360137187   -0.0435141125      0.988230173     0.142006461
4.0688              -0.325558806    -0.943841216    -0.0360268933    0.0436270206      0.036010405   -0.0436370194      0.988255731     0.141791645
4.0704              -0.328055991    -0.942970543     -0.036023711    0.0437501378     0.0360069592   -0.0437601972      0.988281246     0.141576798
4.072               -0.330551958    -0.942092838    -0.0360203955    0.0438735378     0.0360033801   -0.0438836474      0.988306721     0.141361919
4.0736              -0.333046687    -0.941208097    -0.0360169451    0.0439972222     0.0359996662   -0.0440073717      0.988332153     0.141147007
4.0752              -0.335540159    -0.940316319    -0.0360133583    0.0441211926     0.0359958164   -0.0441313719      0.988357543     0.140932061
4.0768              -0.338032354      -0.9394175    -0.0360096337    0.0442454507     0.0359918294   -0.0442556495       0.98838289     0.140717081
4.0784              -0.340523252    -0.938511637    -0.0360057694    0.0443699981     0.0359877036   -0.0443802062      0.988408195     0.140502066
4.08                -0.343012833    -0.937598729     -0.036001764    0.0444948364     0.0359834378   -0.0445050436      0.988433456     0.140287014
4.0816              -0.345501079    -0.936678772    -0.0359976157    0.0446199672     0.0359790305   -0.0446301632      0.988458674     0.140071925
4.0832              -0.347987968    -0.935751765    -0.0359933227    0.0447453919     0.0359744803   -0.0447555666      0.988483847     0.139856798
4.0848              -0.350473483    -0.934817703    -0.0359888834    0.0448711121     0.0359697856   -0.0448812555      0.988508976     0.139641632
4.0864              -0.352957603    -0.933876586     -0.035984296    0.0449971294     0.0359649449   -0.0450072314       0.98853406     0.139426426
4.088               -0.355440309     -0.93292841    -0.0359795586    0.0451234452     0.0359599566   -0.0451334957      0.988559099     0.139211179
4.0896              -0.357921582    -0.931973172    -0.0359746694    0.0452500609     0.0359548193     -0.04526005      0.988584092     0.138995891
4.0912              -0.360401402    -0.931010872    -0.0359696264     0.045376978     0.0359495311   -0.0453868958      0.988609039      0.13878056
4.0928               -0.36287975    -0.930041505    -0.0359644279    0.0455041979     0.0359440905   -0.0455140345      0.988633939     0.138565186
4.0944              -0.365356608     -0.92906507    -0.0359590718    0.0456317219     0.0359384958   -0.0456414676      0.988658791     0.138349767
4.096               -0.367831955    -0.928081564    -0.0359535562    0.0457595514     0.0359327452   -0.0457691966      0.988683596     0.138134304
4.0976              -0.370305773    -0.927090985    -0.0359478791    0.0458876876     0.0359268371   -0.0458972226      0.988708352     0.137918795
4.0992              -0.372778042     -0.92609333    -0.0359420383    0.0460161319     0.0359207695   -0.0460255473      0.988733059     0.137703239
4.1008              -0.375248745    -0.925088597     -0.035936032    0.0461448855     0.0359145409   -0.0461541718      0.988757716     0.137487636
4.1024              -0.377717861    -0.924076784    -0.0359298579    0.0462739495     0.0359081492   -0.0462830976      0.988782323     0.137271984
4.104               -0.380185373    -0.923057888    -0.0359235141    0.0464033252     0.0359015927   -0.0464123258       0.98880688     0.137056284
4.1056              -0.382651261    -0.922031907    -0.0359169982    0.0465330137     0.0358948694   -0.0465418578      0.988831385     0.136840533
4.1072              -0.385115507    -0.920998839    -0.0359103082     0.046663016     0.0358879774   -0.0466716947      0.988855837     0.136624732
4.1088              -0.387578091     -0.91995868    -0.0359034419    0.0467933333     0.0358809149   -0.0468018378      0.988880237     0.136408879
4.1104              -0.390038997     -0.91891143     -0.035896397    0.0469239664     0.0358736798   -0.0469322881      0.988904583     0.136192974
4.112               -0.392498205    -0.917857084    -0.0358891714    0.0470549165     0.0358662702   -0.0470630469      0.988928875     0.135977017
4.1136              -0.394955696    -0.916795642    -0.0358817628    0.0471861843      0.035858684   -0.0471941152      0.988953112     0.135761005
4.1152              -0.397411453      -0.9157271    -0.0358741688    0.0473177709     0.0358509192    -0.047325494      0.988977293      0.13554494
4.1168              -0.399865458    -0.914651456    -0.0358663873    0.0474496769     0.0358429739   -0.0474571844      0.989001417     0.135328819
4.1184              -0.402317691    -0.913568707    -0.0358584159    0.0475819034     0.0358348458   -0.0475891873      0.989025484     0.135112643
4.12                -0.404768136    -0.912478852    -0.0358502522    0.0477144508      0.035826533   -0.0477215037      0.989049493      0.13489641
4.1216              -0.407216773    -0.911381887    -0.0358418941    0.0478473201     0.0358180333   -0.0478541345      0.989073443     0.134680121
4.1232              -0.409663586     -0.91027781     -0.035833339    0.0479805117     0.0358093446   -0.0479870805      0.989097333     0.134463774
4.1248              -0.412108556    -0.909166618    -0.0358245847    0.0481140263     0.0358004648   -0.0481203425      0.989121162     0.134247369
4.1264              -0.414551666    -0.908048309    -0.0358156287    0.0482478645     0.0357913917   -0.0482539213      0.989144929     0.134030905
4.128               -0.416992897    -0.906922881    -0.0358064688    0.0483820268     0.0357821232   -0.0483878176      0.989168634     0.133814381
4.1296              -0.419432233     -0.90579033    -0.0357971024    0.0485165135     0.0357726571   -0.0485220322      0.989192276     0.133597798
4.1312              -0.421869655    -0.904650653    -0.0357875274    0.0486513252     0.0357629913   -0.0486565656      0.989215853     0.133381155
4.1328              -0.424305146    -0.903503848    -0.0357777411     0.048786462     0.0357531235   -0.0487914184      0.989239365     0.133164451
4.1344               -0.42673869    -0.902349913    -0.0357677413    0.0489219244     0.0357430516   -0.0489265912       0.98926281     0.132947686
4.136               -0.429170268    -0.901188844    -0.0357575256    0.0490577124     0.0357327735   -0.0490620845      0.989286188     0.132730859
4.1376              -0.431599863    -0.900020637    -0.0357470916    0.0491938264     0.0357222868   -0.0491978987      0.989309498      0.13251397
4.1392              -0.434027459    -0.898845292     -0.035736437    0.0493302664     0.0357115894   -0.0493340342      0.989332739     0.132297019
4.1408              -0.436453038    -0.897662803    -0.0357255592    0.0494670325     0.0357006792   -0.0494704914       0.98935591     0.132080005
4.1424              -0.438876583    -0.896473169    -0.0357144561    0.0496041247     0.0356895539   -0.0496072705      0.989379009     0.131862928
4.144               -0.441298077    -0.895276385    -0.0357031253    0.0497415428     0.0356782114    -0.049744372      0.989402036     0.131645788
4.1456              -0.443717504    -0.894072449    -0.0356915643    0.0498792869     0.0356666495   -0.0498817958      0.989424989     0.131428584
4.1472              -0.446134846    -0.892861358     -0.035679771    0.0500173568      0.035654866   -0.0500195423      0.989447869     0.131211317
4.1488              -0.448550088    -0.891643107    -0.0356677431    0.0501557522     0.0356428588   -0.0501576114      0.989470673     0.130993985
4.1504              -0.450963211    -0.890417694    -0.0356554782    0.0502944728     0.0356306258   -0.0502960033        0.9894934      0.13077659
4.152               -0.453374201    -0.889185115    -0.0356429741    0.0504335183     0.0356181649    -0.050434718       0.98951605     0.130559131
4.1536              -0.455782337    -0.887944054    -0.0356302303     0.050572888     0.0356054756   -0.0505737551      0.989538621     0.130341607
4.1552              -0.458188299    -0.886695824     -0.035617243    0.0507125818     0.0355925543   -0.0507131149      0.989561113      0.13012402
4.1568              -0.460592104    -0.885440483    -0.0356040098    0.0508525991     0.0355793987   -0.0508527972      0.989583523     0.129906368
4.1584              -0.462993737    -0.884178029    -0.0355905288    0.0509929395     0.0355660068   -0.0509928018      0.989605853     0.129688652
4.16                -0.465393183     -0.88290846    -0.0355767978    0.0511336021     0.0355523767   -0.0511331284      0.989628099     0.129470873
4.1616              -0.467790427    -0.881631773    -0.0355628148    0.0512745865     0.0355385064   -0.0512737769      0.989650261     0.129253029
4.1632              -0.470185455    -0.880347964    -0.0355485778    0.0514158918      0.035524394   -0.0514147467      0.989672338     0.129035122
4.1648              -0.472578252    -0.879057032    -0.0355340849    0.0515575172     0.0355100376   -0.0515560376       0.98969433     0.128817152
4.1664              -0.474968803    -0.877758972    -0.0355193342     0.051699462     0.0354954353   -0.0516976491      0.989716234     0.128599119
4.168               -0.477357093     -0.87645378    -0.0355043238    0.0518417251     0.0354805853   -0.0518395808       0.98973805     0.128381023
4.1696              -0.479743107    -0.875141454     -0.035489052    0.0519843058     0.0354654859   -0.0519818321      0.989759777     0.128162865
4.1712              -0.482126831    -0.873821989    -0.0354735171     0.052127203     0.0354501353   -0.0521244024      0.989781414     0.127944645
4.1728              -0.484508248    -0.872495381    -0.0354577175    0.0522704156      0.035434532   -0.0522672912       0.98980296     0.127726363
4.1744              -0.486887345    -0.871161624    -0.0354416515    0.0524139426     0.0354186742   -0.0524104978      0.989824414     0.127508021
4.176               -0.489264106    -0.869820715    -0.0354253177     0.052557783     0.0354025605   -0.0525540216      0.989845775     0.127289619
4.1776              -0.491638515    -0.868472648    -0.0354087146    0.0527019354     0.0353861893   -0.0526978618      0.989867042     0.127071157
4.1792              -0.494010557    -0.867117418    -0.0353918409    0.0528463988     0.0353695593   -0.0528420177      0.989888214     0.126852636
4.1808              -0.496380216    -0.865755019    -0.0353746952     0.052991172     0.0353526691   -0.0529864885      0.989909291     0.126634057
4.1824              -0.498747478    -0.864385446    -0.0353572766    0.0531362536     0.0353355173   -0.0531312734      0.989930272      0.12641542
4.184               -0.501112325    -0.863008692    -0.0353395837    0.0532816424     0.0353181028   -0.0532763717      0.989951155     0.126196727
4.1856              -0.503474742    -0.861624751    -0.0353216157    0.0534273371     0.0353004244   -0.0534217823       0.98997194     0.125977979
4.1872              -0.505834713    -0.860233616    -0.0353033715    0.0535733363     0.0352824811   -0.0535675046      0.989992627     0.125759175
4.1888              -0.508192221    -0.858835281    -0.0352848505    0.0537196388     0.0352642718   -0.0537135375      0.990013214     0.125540318
4.1904               -0.51054725    -0.857429737    -0.0352660519    0.0538662432     0.0352457958   -0.0538598803      0.990033702     0.125321409
4.192               -0.512899782    -0.856016979     -0.035246975    0.0540131481      0.035227052   -0.0540065319      0.990054089     0.125102447
4.1936                -0.5152498    -0.854596997    -0.0352276194    0.0541603522     0.0352080399   -0.0541534916      0.990074375     0.124883436
4.1952              -0.517597287    -0.853169784    -0.0352079846    0.0543078541     0.0351887588   -0.0543007583      0.990094561     0.124664375
4.1968              -0.519942226    -0.851735332    -0.0351880705    0.0544556524      0.035169208   -0.0544483313      0.990114644     0.124445266
4.1984              -0.522284597    -0.850293632    -0.0351678767    0.0546037459     0.0351493873   -0.0545962096      0.990134626     0.124226111
4.2                 -0.524624383    -0.848844675    -0.0351474033    0.0547521331     0.0351292961   -0.0547443923      0.990154505      0.12400691
4.2016              -0.526961564    -0.847388453    -0.0351266504    0.0549008129     0.0351089344   -0.0548928786      0.990174282     0.123787665
4.2032              -0.529296122    -0.845924956     -0.035105618     0.055049784     0.0350883018   -0.0550416677      0.990193957     0.123568378
4.2048              -0.531628038    -0.844454175    -0.0350843066     0.055199045     0.0350673983   -0.0551907587      0.990213529     0.123349049
4.2064               -0.53395729      -0.8429761    -0.0350627165    0.0553485949      0.035046224    -0.055340151         0.990233     0.123129681
4.208               -0.536283858    -0.841490722    -0.0350408483    0.0554984326      0.035024779   -0.0554898438      0.990252368     0.122910275
4.2096              -0.538607723     -0.83999803    -0.0350187027    0.0556485568     0.0350030636   -0.0556398364      0.990271635     0.122690832
4.2112              -0.540928861    -0.838498014    -0.0349962805    0.0557989668     0.0349810781   -0.0557901283      0.990290801     0.122471355
4.2128              -0.543247252    -0.836990664    -0.0349735826    0.0559496615      0.034958823   -0.0559407189      0.990309866     0.122251844
4.2144              -0.545562873    -0.835475969    -0.0349506101    0.0561006401     0.0349362989   -0.0560916077      0.990328831     0.122032301
4.216               -0.547875701    -0.833953919    -0.0349273641    0.0562519019     0.0349135063   -0.0562427944      0.990347697     0.121812729
4.2176               -0.55018494    -0.832423388    -0.0349038477    0.0564034462     0.0348904478   -0.0563942788      0.990366464     0.121593127
4.2192              -0.552491321    -0.830885469    -0.0348800607    0.0565552726     0.0348671226   -0.0565460605      0.990385135     0.121373499
4.2208              -0.554794822    -0.829340157    -0.0348560045    0.0567073806     0.0348435317   -0.0566981396      0.990403709     0.121153846
4.2224              -0.557095422    -0.827787446    -0.0348316809    0.0568597699      0.034819676   -0.0568505159      0.990422188      0.12093417
4.224               -0.559393098     -0.82622733    -0.0348070917    0.0570124404     0.0347955568   -0.0570031898      0.990440575     0.120714471
4.2256              -0.561687828    -0.824659805    -0.0347822386    0.0571653921     0.0347711754   -0.0571561614      0.990458869     0.120494753
4.2272              -0.563979589    -0.823084866    -0.0347571239    0.0573186252     0.0347465329   -0.0573094311      0.990477074     0.120275015
4.2288              -0.566268357    -0.821502509    -0.0347317495    0.0574721401     0.0347216309   -0.0574629996      0.990495191      0.12005526
4.2304              -0.568554109    -0.819912728    -0.0347061176    0.0576259373     0.0346964709   -0.0576168676      0.990513221      0.11983549
4.232               -0.570836818    -0.818315519    -0.0346802306    0.0577800175     0.0346710543   -0.0577710359      0.990531169     0.119615705
4.2336               -0.57311646     -0.81671088    -0.0346540908    0.0579343817     0.0346453829   -0.0579255057      0.990549035     0.119395908
4.2352               -0.57539301    -0.815098806    -0.0346277008    0.0580890311     0.0346194583   -0.0580802782      0.990566822     0.119176098
4.2368              -0.577666439    -0.813479295    -0.0346010629     0.058243967     0.0345932822   -0.0582353549      0.990584534     0.118956278
4.2384              -0.579936723    -0.811852343    -0.0345741799    0.0583991912     0.0345668564   -0.0583907374      0.990602172     0.118736449
4.24                -0.582203832    -0.810217949    -0.0345470542    0.0585547054     0.0345401827   -0.0585464277      0.990619741     0.118516611
4.2416              -0.584467739    -0.808576112    -0.0345196886    0.0587105118     0.0345132629   -0.0587024279      0.990637244     0.118296766
4.2432              -0.586728414    -0.806926829    -0.0344920858    0.0588666129     0.0344860988   -0.0588587404      0.990654683     0.118076913
4.2448              -0.588985828    -0.805270101    -0.0344642484    0.0590230115     0.0344586922   -0.0590153677      0.990672064     0.117857054
4.2464               -0.59123995    -0.803605927    -0.0344361791    0.0591797104     0.0344310449   -0.0591723128      0.990689389     0.117637188
4.248               -0.593490749    -0.801934308    -0.0344078806    0.0593367131     0.0344031586   -0.0593295787      0.990706663     0.117417317
4.2496              -0.595738194    -0.800255245    -0.0343793554    0.0594940233     0.0343750351   -0.0594871689       0.99072389     0.117197439
4.2512              -0.597982252    -0.798568741     -0.034350606    0.0596516447     0.0343466759   -0.0596450871      0.990741075     0.116977555
4.2528              -0.600222889    -0.796874798     -0.034321635    0.0598095819     0.0343180826   -0.0598033372      0.990758221     0.116757663
4.2544              -0.602460073    -0.795173419    -0.0342924447    0.0599678395     0.0342892565   -0.0599619235      0.990775335     0.116537764
4.256               -0.604693767     -0.79346461    -0.0342630372    0.0601264223     0.0342601989   -0.0601208507       0.99079242     0.116317855
4.2576              -0.606923937    -0.791748374    -0.0342334145    0.0602853359      0.034230911   -0.0602801234      0.990809481     0.116097936
4.2592              -0.609150547     -0.79002472    -0.0342035787     0.060444586     0.0342013937    -0.060439747      0.990826525     0.115878004
4.2608              -0.611373559    -0.788293652    -0.0341735312    0.0606041785     0.0341716477    -0.060599727      0.990843556     0.115658057
4.2624              -0.613592937    -0.786555181    -0.0341432735    0.0607641201     0.0341416734    -0.060760069       0.99086058     0.115438093
4.264               -0.615808643    -0.784809314    -0.0341128066    0.0609244174     0.0341114711   -0.0609207792      0.990877602     0.115218108
4.2656              -0.618020636    -0.783056063    -0.0340821315    0.0610850778     0.0340810407    -0.061081864      0.990894628     0.114998099
4.2672              -0.620228879    -0.781295437    -0.0340512485    0.0612461087     0.0340503818   -0.0612433301      0.990911663     0.114778063
4.2688              -0.622433332     -0.77952745    -0.0340201577    0.0614075181     0.0340194935   -0.0614051844      0.990928713     0.114557994
4.2704              -0.624633953    -0.777752116    -0.0339888588    0.0615693141     0.0339883749   -0.0615674343      0.990945784     0.114337888
4.272               -0.626830703    -0.775969448    -0.0339573508    0.0617315054     0.0339570241   -0.0617300872      0.990962882     0.114117739
4.2736              -0.629023539    -0.774179463    -0.0339256326    0.0618941008     0.0339254392   -0.0618931508      0.990980011     0.113897541
4.2752               -0.63121242    -0.772382178    -0.0338937022    0.0620571095     0.0338936176   -0.0620566333      0.990997178     0.113677287
4.2768              -0.633397304    -0.770577612    -0.0338615572     0.062220541     0.0338615562   -0.0622205427      0.991014387      0.11345697
4.2784              -0.635575964    -0.768763288    -0.0338291987    0.0623844059     0.0338292554   -0.0623848883      0.991031644     0.113236582
4.28                 -0.63775036    -0.766941547     -0.033796619    0.0625487133     0.0337967072   -0.0625496779      0.991048953     0.113016114
4.2816              -0.639920461    -0.765112427    -0.0337638136    0.0627134733     0.0337639064   -0.0627149201      0.991066318     0.112795557
4.2832              -0.642086226    -0.763275955    -0.0337307772    0.0628786961     0.0337308473   -0.0628806235      0.991083744     0.112574901
4.2848              -0.644247616     -0.76143216    -0.0336975036     0.063044392     0.0336975236    -0.063046797      0.991101235     0.112354135
4.2864              -0.646404591    -0.759581076     -0.033663986    0.0632105714     0.0336639279    -0.063213449      0.991118792     0.112133247
4.288               -0.648557115    -0.757722736    -0.0336302164    0.0633772446     0.0336300523   -0.0633805884       0.99113642     0.111912226
4.2896              -0.650705154    -0.755857178     -0.033596186    0.0635444219     0.0335958879   -0.0635482233      0.991154118     0.111691058
4.2912              -0.652848675     -0.75398444     -0.033561885    0.0637121132     0.0335614248   -0.0637163622      0.991171889     0.111469729
4.2928              -0.654987647    -0.752104563    -0.0335273024    0.0638803284     0.0335266524   -0.0638850127      0.991189732     0.111248225
4.2944              -0.657122043     -0.75021759    -0.0334924265    0.0640490769     0.0334915592   -0.0640541826      0.991207646     0.111026531
4.296                -0.65925184    -0.748323566    -0.0334572442    0.0642183677     0.0334561324   -0.0642238787      0.991225629     0.110804631
4.2976              -0.661377015    -0.746422538    -0.0334217413    0.0643882094     0.0334203585   -0.0643941075      0.991243677     0.110582508
4.2992              -0.663497552    -0.744514554    -0.0333859026    0.0645586096     0.0333842231   -0.0645648747      0.991261785     0.110360147
4.3008              -0.665613436    -0.742599664    -0.0333497118    0.0647295755     0.0333477106   -0.0647361853      0.991279947     0.110137528
4.3024               -0.66772466    -0.740677919    -0.0333131512     0.064901113     0.0333108045   -0.0649080432      0.991298156     0.109914635
4.304               -0.669831218    -0.738749372    -0.0332762024    0.0650732272     0.0332734874   -0.0650804513        0.9913164     0.109691449
4.3056              -0.671933111    -0.736814074    -0.0332388454    0.0652459218      0.033235741   -0.0652534113      0.991334668     0.109467952
4.3072              -0.674030345    -0.734872079    -0.0332010595    0.0654191992     0.0331975461   -0.0654269236      0.991352947     0.109244126
4.3088              -0.676122931    -0.732923439     -0.033162823    0.0655930602     0.0331588827   -0.0656009869      0.991371219     0.109019953
4.3104              -0.678210886    -0.730968206    -0.0331241131     0.065767504     0.0331197302   -0.0657755983      0.991389467     0.108795414
4.312               -0.680294235     -0.72900643    -0.0330849063    0.0659425276     0.0330800673   -0.0659507531      0.991407668     0.108570493