! TOUCHSTONE file generated by CST MICROWAVE STUDIO
! Date and time: Wed Jan 22 20:09:13 2025
! Project name: NUEVA_TRANSICION_CORTO.cst
! Parameters = {DespTor=4.318; H=17; Hcono=2.59394; Hstep1=13.4144; Hstep2=6.31893; Hstep3=0; Htuerca=0.1; L=55; Lback=11; Ldielectrico=9.525; Lstep1=12.9914; Lstep2=10.8318; Lstep3=9.99957; Ltor=4; Nsegments=0; Ragujero=1.4615; Rcono1=4.39874; Rcono2=2.78582; Rext=2.055; Rint=0.635; Rtor=1.275; Rtuerca=2.451; Target=-30; W=34; lopt1=0.632257; lopt2=6.83182; lopt3=5.99957; rrcono2=2.78582; thickness=2; topthickness=3}
! Header version: 2018
! Port assignment regex: !\s*Touchstone port\s*([0-9]+)\s*=\s*(CST MWS port|CST DS port)\s*([0-9]+|Zmin|Zmax)\s*\(\"(.*)\"\)(\s*mode\s*([0-9]+))?.*
! Touchstone port assignment:
! Touchstone port 1 = CST MWS port 1 ("")
! Touchstone port 2 = CST MWS port 2 ("")
# GHz S MA R 50
4                    0.998606211      -102.56905     0.0528007747      133.064345     0.0527939578     -46.9410924      0.998605421      8.69782054
4.0016               0.998602402     -102.717898     0.0528842068      132.982305     0.0528776758     -47.0235102      0.998599942      8.68543067
4.0032               0.998598559     -102.866815     0.0529678309      132.900291     0.0529615765     -47.1059015       0.99859447      8.67304123
4.0048               0.998594683     -103.015799     0.0530516487      132.818302     0.0530456615     -47.1882667      0.998589006      8.66065217
4.0064               0.998590774     -103.164852     0.0531356616      132.736338     0.0531299322     -47.2706065      0.998583548      8.64826345
4.008                0.998586831     -103.313973      0.053219871      132.654398     0.0532143902     -47.3529213      0.998578097      8.63587503
4.0096               0.998582855     -103.463162     0.0533042786      132.572482     0.0532990369     -47.4352119      0.998572653      8.62348686
4.0112               0.998578845     -103.612419     0.0533888857      132.490587     0.0533838738     -47.5174787      0.998567216      8.61109891
4.0128                 0.9985748     -103.761744     0.0534736939      132.408715     0.0534689024     -47.5997224      0.998561787      8.59871113
4.0144               0.998570722     -103.911137     0.0535587045      132.326863     0.0535541241     -47.6819437      0.998556364      8.58632347
4.016                0.998566609     -104.060597     0.0536439192      132.245032     0.0536395405     -47.7641431      0.998550949       8.5739359
4.0176               0.998562461     -104.210126     0.0537293394       132.16322      0.053725153     -47.8463213      0.998545541      8.56154835
4.0192               0.998558279     -104.359723     0.0538149665      132.081426     0.0538109631     -47.9284791       0.99854014       8.5491608
4.0208               0.998554063     -104.509387      0.053900802       131.99965     0.0538969722     -48.0106171      0.998534746       8.5367732
4.0224               0.998549811      -104.65912     0.0539868473       131.91789     0.0539831819     -48.0927361       0.99852936       8.5243855
4.024                0.998545524      -104.80892      0.054073104      131.836147     0.0540695935     -48.1748367       0.99852398      8.51199765
4.0256               0.998541202     -104.958788     0.0541595733      131.754418     0.0541562085     -48.2569197      0.998518608       8.4996096
4.0272               0.998536846     -105.108723     0.0542462568      131.672703     0.0542430285     -48.3389859      0.998513243      8.48722133
4.0288               0.998532453     -105.258727     0.0543331559      131.591002     0.0543300548     -48.4210361      0.998507884      8.47483276
4.0304               0.998528026     -105.408798      0.054420272      131.509312     0.0544172888     -48.5030711      0.998502533      8.46244387
4.032                0.998523563     -105.558937     0.0545076065      131.427634     0.0545047321     -48.5850916      0.998497188       8.4500546
4.0336               0.998519064     -105.709144     0.0545951607      131.345965      0.054592386     -48.6670985       0.99849185       8.4376649
4.0352                0.99851453     -105.859418     0.0546829362      131.264306      0.054680252     -48.7490926      0.998486519      8.42527473
4.0368               0.998509961      -106.00976     0.0547709342      131.182655     0.0547683314     -48.8310749      0.998481194      8.41288404
4.0384               0.998505356      -106.16017     0.0548591561      131.101011     0.0548566258     -48.9130461      0.998475876      8.40049278
4.04                 0.998500715     -106.310648     0.0549476032      131.019373     0.0549451364     -48.9950072      0.998470564       8.3881009
4.0416               0.998496039     -106.461193      0.055036277       130.93774     0.0550338647      -49.076959      0.998465258      8.37570836
4.0432               0.998491327     -106.611806     0.0551251787      130.856111      0.055122812     -49.1589025      0.998459958       8.3633151
4.0448               0.998486579     -106.762487     0.0552143096      130.774485     0.0552119797     -49.2408386      0.998454665      8.35092108
4.0464               0.998481796     -106.913235      0.055303671       130.69286     0.0553013692     -49.3227683      0.998449376      8.33852626
4.048                0.998476977     -107.064051     0.0553932643      130.611236     0.0553909819     -49.4046924      0.998444094      8.32613057
4.0496               0.998472123     -107.214935     0.0554830906      130.529612      0.055480819     -49.4866121      0.998438816      8.31373397
4.0512               0.998467233     -107.365886     0.0555731513      130.447986     0.0555708818     -49.5685281      0.998433544      8.30133641
4.0528               0.998462308     -107.516906     0.0556634475      130.366357     0.0556611718     -49.6504416      0.998428276      8.28893785
4.0544               0.998457347     -107.667993     0.0557539806      130.284725     0.0557516901     -49.7323536      0.998423014      8.27653823
4.056                0.998452351     -107.819148     0.0558447516      130.203087     0.0558424381     -49.8142651      0.998417755       8.2641375
4.0576                0.99844732      -107.97037     0.0559357617      130.121443      0.055933417      -49.896177      0.998412501      8.25173562
4.0592               0.998442254     -108.121661     0.0560270123      130.039792     0.0560246282     -49.9780905       0.99840725      8.23933253
4.0608               0.998437152     -108.273019     0.0561185042      129.958132     0.0561160727     -50.0600065      0.998402003      8.22692818
4.0624               0.998432016     -108.424446     0.0562102388      129.876462      0.056207752     -50.1419263       0.99839676      8.21452253
4.064                0.998426846      -108.57594     0.0563022171      129.794781      0.056299667     -50.2238507      0.998391519      8.20211553
4.0656                0.99842164     -108.727503     0.0563944402      129.713088     0.0563918192     -50.3057809      0.998386281      8.18970712
4.0672               0.998416401     -108.879133     0.0564869092      129.631381     0.0564842095     -50.3877181      0.998381045      8.17729726
4.0688               0.998411127     -109.030831      0.056579625       129.54966     0.0565768392     -50.4696632      0.998375811       8.1648859
4.0704               0.998405819     -109.182598     0.0566725888      129.467922     0.0566697095     -50.5516174      0.998370578      8.15247298
4.072                0.998400477     -109.334433     0.0567658014      129.386168     0.0567628213     -50.6335819      0.998365347      8.14005847
4.0736               0.998395101     -109.486336     0.0568592639      129.304395     0.0568561759     -50.7155576      0.998360116       8.1276423
4.0752               0.998389692     -109.638308     0.0569529772      129.222602     0.0569497743     -50.7975458      0.998354886      8.11522443
4.0768                0.99838425     -109.790348     0.0570469423      129.140789     0.0570436175     -50.8795476      0.998349656      8.10280482
4.0784               0.998378775     -109.942456       0.05714116      129.058953     0.0571377066     -50.9615642      0.998344425      8.09038341
4.08                 0.998373267     -110.094633     0.0572356312      128.977094     0.0572320426     -51.0435965      0.998339193      8.07796015
4.0816               0.998367727     -110.246879     0.0573303567       128.89521     0.0573266265     -51.1256459      0.998333959        8.065535
4.0832               0.998362154     -110.399193     0.0574253374        128.8133     0.0574214592     -51.2077135      0.998328724      8.05310791
4.0848                0.99835655     -110.551577      0.057520574      128.731363     0.0575165417     -51.2898003      0.998323485      8.04067883
4.0864               0.998350914     -110.704029     0.0576160673      128.649397      0.057611875     -51.3719076      0.998318244      8.02824772
4.088                0.998345246      -110.85655      0.057711818      128.567402     0.0577074598     -51.4540365         0.998313      8.01581453
4.0896               0.998339548     -111.009141     0.0578078269      128.485375     0.0578032971     -51.5361882      0.998307751       8.0033792
4.0912               0.998333819       -111.1618     0.0579040945      128.403317     0.0578993877     -51.6183638      0.998302497      7.99094171
4.0928               0.998328059     -111.314529     0.0580006216      128.321224     0.0579957324     -51.7005645      0.998297238      7.97850199
4.0944                0.99832227     -111.467328     0.0580974086      128.239098     0.0580923321     -51.7827914      0.998291973      7.96606001
4.096                0.998316451     -111.620196     0.0581944563      128.156935     0.0581891874     -51.8650457      0.998286701      7.95361572
4.0976               0.998310603     -111.773134     0.0582917652      128.074735     0.0582862991     -51.9473284      0.998281423      7.94116907
4.0992               0.998304725     -111.926142     0.0583893357      127.992496      0.058383668     -52.0296409      0.998276136      7.92872003
4.1008                0.99829882      -112.07922     0.0584871683      127.910218     0.0584812947     -52.1119841      0.998270841      7.91626856
4.1024               0.998292886     -112.232368     0.0585852635      127.827899     0.0585791798     -52.1943593      0.998265536       7.9038146
4.104                0.998286924     -112.385586     0.0586836217      127.745539     0.0586773239     -52.2767674      0.998260222      7.89135812
4.1056               0.998280935     -112.538875     0.0587822433      127.663134     0.0587757278     -52.3592098      0.998254897      7.87889907
4.1072               0.998274919     -112.692235     0.0588811285      127.580686     0.0588743918     -52.4416874       0.99824956      7.86643743
4.1088               0.998268877     -112.845665     0.0589802779      127.498192     0.0589733166     -52.5242014      0.998244211      7.85397314
4.1104               0.998262808     -112.999167     0.0590796915      127.415652     0.0590725027     -52.6067528       0.99823885      7.84150618
4.112                0.998256714      -113.15274     0.0591793696      127.333064     0.0591719504     -52.6893427      0.998233474       7.8290365
4.1136               0.998250595     -113.306385     0.0592793125      127.250427     0.0592716604     -52.7719722      0.998228084      7.81656406
4.1152               0.998244451     -113.460101     0.0593795203       127.16774     0.0593716329     -52.8546423      0.998222679      7.80408884
4.1168               0.998238283     -113.613889     0.0594799931      127.085002     0.0594718684     -52.9373541      0.998217257       7.7916108
4.1184               0.998232091     -113.767749     0.0595807311      127.002212     0.0595723671     -53.0201085      0.998211819       7.7791299
4.12                 0.998225876     -113.921681     0.0596817343      126.919369     0.0596731295     -53.1029066      0.998206362      7.76664612
4.1216               0.998219637     -114.075686     0.0597830027      126.836472     0.0597741558     -53.1857494      0.998200887      7.75415942
4.1232               0.998213376     -114.229764     0.0598845363       126.75352     0.0598754462     -53.2686377      0.998195392      7.74166977
4.1248               0.998207094     -114.383915     0.0599863351      126.670512     0.0599770009     -53.3515727      0.998189876      7.72917714
4.1264               0.998200789      -114.53814      0.060088399      126.587447     0.0600788202      -53.434555      0.998184339      7.71668152
4.128                0.998194464     -114.692437     0.0601907279      126.504325     0.0601809043     -53.5175858      0.998178779      7.70418286
4.1296               0.998188118     -114.846809     0.0602933216      126.421144     0.0602832531     -53.6006658      0.998173196      7.69168116
4.1312               0.998181752     -115.001255       0.06039618      126.337904     0.0603858669     -53.6837958      0.998167589      7.67917638
4.1328               0.998175366     -115.155776     0.0604993028      126.254603     0.0604887457     -53.7669768      0.998161957       7.6666685
4.1344               0.998168961     -115.310371     0.0606026897      126.171242     0.0605918894     -53.8502095      0.998156298      7.65415751
4.136                0.998162537     -115.465041     0.0607063406      126.087819     0.0606952983     -53.9334946      0.998150611      7.64164338
4.1376               0.998156095     -115.619787      0.060810255      126.004333     0.0607989721      -54.016833      0.998144897       7.6291261
4.1392               0.998149635     -115.774608     0.0609144327      125.920785     0.0609029108     -54.1002252      0.998139153      7.61660566
4.1408               0.998143157     -115.929505     0.0610188732      125.837173     0.0610071144     -54.1836721       0.99813338      7.60408204
4.1424               0.998136662     -116.084479     0.0611235761      125.753497     0.0611115828     -54.2671741      0.998127574      7.59155524
4.144                0.998130151     -116.239529      0.061228541      125.669756     0.0612163157      -54.350732      0.998121737      7.57902523
4.1456               0.998123623     -116.394657     0.0613337675       125.58595     0.0613213131     -54.4343462      0.998115866      7.56649202
4.1472                0.99811708     -116.549862     0.0614392549      125.502078     0.0614265747     -54.5180174      0.998109961       7.5539556
4.1488               0.998110521     -116.705145     0.0615450028      125.418141     0.0615321003     -54.6017459      0.998104021      7.54141597
4.1504               0.998103946     -116.860506     0.0616510106      125.334137     0.0616378897     -54.6855323      0.998098044      7.52887312
4.152                0.998097357     -117.015946     0.0617572778      125.250066     0.0617439426      -54.769377       0.99809203      7.51632705
4.1536               0.998089265     -117.171463     0.0618638045       125.16593     0.0618502595     -54.8532789      0.998085977      7.50377778
4.1552                0.99808116      -117.32706     0.0619705894      125.081727     0.0619568394     -54.9372397      0.998079885       7.4912253
4.1568               0.998073111     -117.482736     0.0620776317      124.997457     0.0620636818     -55.0212599      0.998073752      7.47866962
4.1584               0.998065122     -117.638493     0.0621849308       124.91312     0.0621707864     -55.1053396      0.998067578      7.46611076
4.16                 0.998057195     -117.794331      0.062292486      124.828715     0.0622781528      -55.189479      0.998061361      7.45354872
4.1616               0.998049331      -117.95025     0.0624002966      124.744243     0.0623857807     -55.2736783      0.998055101      7.44098352
4.1632               0.998041533      -118.10625     0.0625083619      124.659703     0.0624936697     -55.3579376      0.998048796      7.42841517
4.1648               0.998033802     -118.262333     0.0626166813      124.575097     0.0626018193     -55.4422568      0.998042446       7.4158437
4.1664                0.99802614     -118.418498     0.0627252538      124.490423     0.0627102292      -55.526636       0.99803605      7.40326913
4.168                0.998018549     -118.574746     0.0628340789      124.405683      0.062818899     -55.6110752      0.998029606      7.39069147
4.1696               0.998011029     -118.731078     0.0629431558      124.320877     0.0629278281     -55.6955741      0.998023114      7.37811077
4.1712               0.998003582     -118.887494     0.0630524837      124.236005     0.0630370163     -55.7801327      0.998016573      7.36552705
4.1728               0.997996208     -119.043994      0.063162062      124.151068      0.063146463     -55.8647506      0.998009982      7.35294034
4.1744               0.997988909      -119.20058     0.0632718898      124.066065     0.0632561678     -55.9494277       0.99800334      7.34035067
4.176                0.997981684     -119.357251     0.0633819665      123.980999     0.0633661304     -56.0341636      0.997996646      7.32775809
4.1776               0.997974533     -119.514008     0.0634922914      123.895868     0.0634763502     -56.1189578        0.9979899      7.31516264
4.1792               0.997967458     -119.670851     0.0636028637      123.810675     0.0635868269     -56.2038099        0.9979831      7.30256435
4.1808               0.997960456     -119.827782     0.0637136828       123.72542     0.0636975602     -56.2887195      0.997976247      7.28996327
4.1824               0.997953529     -119.984801     0.0638247479      123.640103     0.0638085496     -56.3736859      0.997969339      7.27735946
4.184                0.997946674     -120.141907     0.0639360586      123.554726     0.0639197948     -56.4587085      0.997962375      7.26475295
4.1856               0.997939892     -120.299102     0.0640476142       123.46929     0.0640312954     -56.5437866      0.997955356      7.25214382
4.1872                0.99793318     -120.456387      0.064159414      123.383796     0.0641430512     -56.6289195      0.997948281       7.2395321
4.1888               0.997926537     -120.613761     0.0642714577      123.298244     0.0642550619     -56.7141063      0.997941149      7.22691786
4.1904               0.997919961     -120.771225     0.0643837446      123.212637     0.0643673273     -56.7993462      0.997933959      7.21430117
4.192                 0.99791345     -120.928781     0.0644962744      123.126975     0.0644798471     -56.8846383      0.997926712      7.20168208
4.1936               0.997907001     -121.086428     0.0646090467      123.041259     0.0645926213     -56.9699815      0.997919406      7.18906066
4.1952               0.997900612     -121.244166     0.0647220611      122.955492     0.0647056497     -57.0553749      0.997912043      7.17643698
4.1968                0.99789428     -121.401997     0.0648353174      122.869674     0.0648189322     -57.1408173      0.997904621      7.16381111
4.1984                  0.997888     -121.559922     0.0649488154      122.783808      0.064932469     -57.2263075      0.997897141      7.15118312
4.2                  0.997881769     -121.717939     0.0650625549      122.697894       0.06504626     -57.3118444      0.997889602      7.13855309
4.2016               0.997875584     -121.876051     0.0651765359      122.611935     0.0651603053     -57.3974266      0.997882004      7.12592109
4.2032               0.997869439     -122.034258     0.0652907584      122.525932     0.0652746053     -57.4830529      0.997874349       7.1132872
4.2048                0.99786333     -122.192559     0.0654052226      122.439887     0.0653891602     -57.5687219      0.997866635       7.1006515
4.2064               0.997857251     -122.350957     0.0655199286      122.353802     0.0655039703     -57.6544322      0.997858864      7.08801408
4.208                0.997851197      -122.50945     0.0656348769      122.267678     0.0656190362     -57.7401823      0.997851035      7.07537501
4.2096               0.997845163      -122.66804     0.0657500678      122.181518     0.0657343583     -57.8259706       0.99784315      7.06273438
4.2112               0.997839142     -122.826728     0.0658655019      122.095324     0.0658499373     -57.9117957      0.997835208      7.05009227
4.2128               0.997833127     -122.985513     0.0659811799      122.009098      0.065965774      -57.997656      0.997827211      7.03744877
4.2144               0.997827111     -123.144396     0.0660971025      121.922841     0.0660818692     -58.0835498       0.99781916      7.02480396
4.216                0.997821087     -123.303377     0.0662132708      121.836556     0.0661982239     -58.1694754      0.997811055      7.01215793
4.2176               0.997813693     -123.462456     0.0663296867      121.750247     0.0663148402       -58.25543      0.997802897      6.99951076
4.2192               0.997806255     -123.621634     0.0664463505      121.663914     0.0664317183     -58.3414131      0.997794689      6.98686254
4.2208               0.997798772     -123.780912     0.0665632636      121.577559     0.0665488597     -58.4274229      0.997786431      6.97421335
4.2224               0.997791243      -123.94029     0.0666804276      121.491186     0.0666662658     -58.5134577      0.997778124      6.96156327
4.224                0.997783663     -124.099769     0.0667978442      121.404795     0.0667839383     -58.5995158      0.997769771      6.94891237
4.2256               0.997776032     -124.259348     0.0669155152       121.31839      0.066901879     -58.6855954      0.997761373      6.93626075
4.2272               0.997768347     -124.419029     0.0670334428      121.231972     0.0670200899     -58.7716948      0.997752932      6.92360847
4.2288               0.997760605     -124.578811     0.0671516292      121.145544      0.067138573     -58.8578122       0.99774445       6.9109556
4.2304               0.997752803     -124.738695     0.0672700769      121.059108     0.0672573306     -58.9439459       0.99773593      6.89830222
4.232                0.997744938     -124.898681     0.0673887885      120.972666     0.0673763653     -59.0300943      0.997727374      6.88564838
4.2336               0.997737009      -125.05877     0.0675077669       120.88622     0.0674956796     -59.1162556      0.997718784      6.87299414
4.2352               0.997729011      -125.21896     0.0676270153      120.799773     0.0676152765     -59.2024284      0.997710164      6.86033956
4.2368               0.997720942     -125.379254     0.0677465368      120.713327     0.0677351588     -59.2886108      0.997701516      6.84768468
4.2384               0.997712799     -125.539649     0.0678663351      120.626883     0.0678553298     -59.3748016      0.997692842      6.83502954
4.24                 0.997704579     -125.700148     0.0679864139      120.540444     0.0679757929     -59.4609993      0.997684148      6.82237417
4.2416                0.99769628     -125.860749     0.0681067772      120.454011     0.0680965518     -59.5472024      0.997675435      6.80971859
4.2432               0.997687897     -126.021453     0.0682274293      120.367586     0.0682176101     -59.6334097      0.997666708      6.79706282
4.2448               0.997679428      -126.18226     0.0683483745      120.281171      0.068338972     -59.7196201      0.997657969      6.78440685
4.2464                0.99767087      -126.34317     0.0684696178      120.194768     0.0684606416     -59.8058325      0.997649224      6.77175068
4.248                0.997662219     -126.504182      0.068591164      120.108377     0.0685826234      -59.892046      0.997640476      6.75909429
4.2496               0.997653474     -126.665296     0.0687130183         120.022      0.068704922     -59.9782598      0.997631729      6.74643764
4.2512                0.99764463     -126.826512     0.0688351862      119.935638     0.0688275421     -60.0644733      0.997622988      6.73378068
4.2528               0.997635685      -126.98783     0.0689576734      119.849292      0.068950489      -60.150686      0.997614257      6.72112335
4.2544               0.997626636     -127.149249     0.0690804859      119.762962     0.0690737677     -60.2368976       0.99760554      6.70846556
4.256                0.997617481     -127.310769     0.0692036298       119.67665     0.0691973837     -60.3231081      0.997596843      6.69580721
4.2576               0.997608217      -127.47239     0.0693271116      119.590354     0.0693213427     -60.4093175      0.997588171      6.68314818
4.2592                0.99759884      -127.63411     0.0694509378      119.504076     0.0694456504     -60.4955263      0.997579528      6.67048834
4.2608                0.99758935      -127.79593     0.0695751154      119.417815     0.0695703127      -60.581735      0.997570919      6.65782752
4.2624               0.997579744     -127.957849     0.0696996515      119.331571     0.0696953359     -60.6679445       0.99756235      6.64516554
4.264                 0.99757002     -128.119866     0.0698245531      119.245342     0.0698207261     -60.7541559      0.997553825      6.63250219
4.2656               0.997560176      -128.28198     0.0699498279      119.159127     0.0699464899     -60.8403708       0.99754535      6.61983723
4.2672               0.997550211     -128.444191     0.0700754833      119.072925     0.0700726336     -60.9265908       0.99753693       6.6071704
4.2688               0.997540124     -128.606497     0.0702015271      118.986733     0.0701991639      -61.012818       0.99752857      6.59450141
4.2704               0.997529914     -128.768898     0.0703279671       118.90055     0.0703260876     -61.0990548      0.997520276      6.58182994
4.272                0.997519581     -128.931393     0.0704548113      118.814373     0.0704534112     -61.1853041      0.997512051      6.56915564
4.2736               0.997509125      -129.09398     0.0705820675      118.728198     0.0705811416     -61.2715689      0.997503901      6.55647813
4.2752               0.997498546     -129.256659      0.070709744      118.642022     0.0707092854     -61.3578529      0.997495831      6.54379699
4.2768               0.997487845     -129.419429     0.0708378485      118.555841     0.0708378494       -61.44416      0.997487844      6.53111176
4.2784               0.997473709     -129.582281     0.0709663919      118.469654      0.070966843     -61.5304919      0.997479946      6.51842197
4.28                 0.997459202     -129.745222     0.0710953795      118.383451     0.0710962701     -61.6168559      0.997472139      6.50572709
4.2816               0.997444346     -129.908248      0.071224819      118.297229     0.0712261369     -61.7032573      0.997464428      6.49302655
4.2832               0.997429148      -130.07136     0.0713547178       118.21098     0.0713564494     -61.7897018      0.997456814      6.48031976
4.2848               0.997413618     -130.234554     0.0714850832      118.124699     0.0714872136     -61.8761956      0.997449302      6.46760608
4.2864               0.997397767     -130.397831     0.0716159221      118.038378     0.0716184347     -61.9627454      0.997441891      6.45488484
4.288                0.997381611     -130.561189      0.071747241      117.952009     0.0717501178     -62.0493583      0.997434584      6.44215532
4.2896               0.997365164     -130.724625     0.0718790461      117.865585     0.0718822674     -62.1360417       0.99742738      6.42941677
4.2912               0.997348448      -130.88814     0.0720113428      117.779096     0.0720148876     -62.2228039       0.99742028      6.41666842
4.2928               0.997331485     -131.051731      0.072144136      117.692533     0.0721479818     -62.3096533      0.997413281      6.40390943
4.2944               0.997314299     -131.215397       0.07227743      117.605886     0.0722815526     -62.3965988      0.997406381      6.39113895
4.296                 0.99729692     -131.379137      0.072411228      117.519145     0.0724156018     -62.4836497      0.997399575      6.37835609
4.2976               0.997279379     -131.542949     0.0725455326      117.432299     0.0725501306     -62.5708159       0.99739286      6.36555996
4.2992               0.997261712     -131.706833     0.0726803452      117.345337     0.0726851388     -62.6581072      0.997386228       6.3527496
4.3008               0.997243956     -131.870787      0.072815666      117.258247     0.0728206254     -62.7455343      0.997379671      6.33992407
4.3024               0.997226154      -132.03481     0.0729514943      117.171017     0.0729565882     -62.8331077       0.99737318       6.3270824
4.304                0.997208351     -132.198902     0.0730878276      117.083635     0.0730930236     -62.9208382      0.997366742      6.31422362
4.3056               0.997190596     -132.363061     0.0732246622      116.996087     0.0732299267      -63.008737      0.997360345      6.30134677
4.3072               0.997172943     -132.527288     0.0733619927      116.908362      0.073367291      -63.096815      0.997353971      6.28845089
4.3088               0.997155446     -132.691582     0.0734998121      116.820446     0.0735051085     -63.1850832      0.997347605      6.27553504
4.3104               0.997138167     -132.855943     0.0736381114      116.732326     0.0736433694     -63.2735525      0.997341224      6.26259834
4.312                0.997121167     -133.020371     0.0737768797       116.64399     0.0737820621     -63.3622336      0.997334807      6.24963994