! TOUCHSTONE file generated by CST MICROWAVE STUDIO
! Date and time: Wed Jan 22 20:09:40 2025
! Project name: NUEVA_TRANSICION_CORTO.cst
! Parameters = {DespTor=4.318; H=17; Hcono=2.59394; Hstep1=13.4144; Hstep2=6.31893; Hstep3=0; Htuerca=0.1; L=55; Lback=11; Ldielectrico=9.525; Lstep1=12.9914; Lstep2=10.8318; Lstep3=9.99957; Ltor=4; Nsegments=0; Ragujero=1.4615; Rcono1=4.39874; Rcono2=2.78582; Rext=2.055; Rint=0.635; Rtor=1.275; Rtuerca=2.451; Target=-30; W=34; lopt1=0.632257; lopt2=6.83182; lopt3=5.99957; rrcono2=2.78582; thickness=2; topthickness=3}
! Header version: 2018
! Port assignment regex: !\s*Touchstone port\s*([0-9]+)\s*=\s*(CST MWS port|CST DS port)\s*([0-9]+|Zmin|Zmax)\s*\(\"(.*)\"\)(\s*mode\s*([0-9]+))?.*
! Touchstone port assignment:
! Touchstone port 1 = CST MWS port 1 ("")
! Touchstone port 2 = CST MWS port 2 ("")
# GHz S DB R 50
4                  -0.0121147388      -102.56905      -25.5471941      133.064345      -25.5483156     -46.9410924     -0.012121616      8.69782054
4.0016             -0.0121478755     -102.717898      -25.5334801      132.982305      -25.5345528     -47.0235102    -0.0121692688      8.68543067
4.0032             -0.0121812991     -102.866815      -25.5197562      132.900291      -25.5207819     -47.1059015    -0.0122168624      8.67304123
4.0048             -0.0122150113     -103.015799      -25.5060223      132.818302      -25.5070026     -47.1882667    -0.0122643962      8.66065217
4.0064             -0.0122490137     -103.164852      -25.4922782      132.736338      -25.4932148     -47.2706065    -0.0123118697      8.64826345
4.008               -0.012283308     -103.313973      -25.4785236      132.654398      -25.4794182     -47.3529213    -0.0123592825      8.63587503
4.0096             -0.0123178957     -103.463162      -25.4647586      132.572482      -25.4656128     -47.4352119    -0.0124066342      8.62348686
4.0112             -0.0123527783     -103.612419      -25.4509829      132.490587      -25.4517983     -47.5174787    -0.0124539244      8.61109891
4.0128             -0.0123879572     -103.761744      -25.4371963      132.408715      -25.4379746     -47.5997224    -0.0125011528      8.59871113
4.0144             -0.0124234338     -103.911137      -25.4233987      132.326863      -25.4241416     -47.6819437    -0.0125483193      8.58632347
4.016              -0.0124592093     -104.060597        -25.40959      132.245032       -25.410299     -47.7641431    -0.0125954237       8.5739359
4.0176              -0.012495285     -104.210126        -25.39577       132.16322      -25.3964468     -47.8463213    -0.0126424659      8.56154835
4.0192             -0.0125316621     -104.359723      -25.3819385      132.081426      -25.3825847     -47.9284791     -0.012689446       8.5491608
4.0208             -0.0125683417     -104.509387      -25.3680955       131.99965      -25.3687126     -48.0106171    -0.0127363641       8.5367732
4.0224             -0.0126053248      -104.65912      -25.3542407       131.91789      -25.3548304     -48.0927361    -0.0127832203       8.5243855
4.024              -0.0126426124      -104.80892       -25.340374      131.836147      -25.3409379     -48.1748367    -0.0128300149      8.51199765
4.0256             -0.0126802054     -104.958788      -25.3264953      131.754418       -25.327035     -48.2569197    -0.0128767481       8.4996096
4.0272             -0.0127181046     -105.108723      -25.3126045      131.672703      -25.3131214     -48.3389859    -0.0129234204      8.48722133
4.0288             -0.0127563107     -105.258727      -25.2987014      131.591002      -25.2991971     -48.4210361    -0.0129700323      8.47483276
4.0304             -0.0127948245     -105.408798      -25.2847858      131.509312       -25.285262     -48.5030711    -0.0130165842      8.46244387
4.032              -0.0128336465     -105.558937      -25.2708578      131.427634      -25.2713158     -48.5850916     -0.013063077       8.4500546
4.0336             -0.0128727772     -105.709144       -25.256917      131.345965      -25.2573585     -48.6670985    -0.0131095112       8.4376649
4.0352             -0.0129122172     -105.859418      -25.2429635      131.264306      -25.2433899     -48.7490926    -0.0131558878      8.42527473
4.0368             -0.0129519667      -106.00976       -25.228997      131.182655      -25.2294098     -48.8310749    -0.0132022077      8.41288404
4.0384              -0.012992026      -106.16017      -25.2150176      131.101011      -25.2154182     -48.9130461    -0.0132484718      8.40049278
4.04               -0.0130323954     -106.310648      -25.2010249      131.019373      -25.2014149     -48.9950072    -0.0132946813       8.3881009
4.0416             -0.0130730749     -106.461193       -25.187019       130.93774      -25.1873998      -49.076959    -0.0133408374      8.37570836
4.0432             -0.0131140645     -106.611806      -25.1729998      130.856111      -25.1733727     -49.1589025    -0.0133869414       8.3633151
4.0448             -0.0131553643     -106.762487      -25.1589671      130.774485      -25.1593336     -49.2408386    -0.0134329948      8.35092108
4.0464              -0.013196974     -106.913235      -25.1449208       130.69286      -25.1452823     -49.3227683    -0.0134789989      8.33852626
4.048              -0.0132388934     -107.064051      -25.1308608      130.611236      -25.1312187     -49.4046924    -0.0135249555      8.32613057
4.0496             -0.0132811223     -107.214935      -25.1167871      130.529612      -25.1171427     -49.4866121    -0.0135708662      8.31373397
4.0512               -0.01332366     -107.365886      -25.1026995      130.447986      -25.1030542     -49.5685281    -0.0136167329      8.30133641
4.0528             -0.0133665063     -107.516906       -25.088598      130.366357      -25.0889531     -49.6504416    -0.0136625575      8.28893785
4.0544             -0.0134096603     -107.667993      -25.0744824      130.284725      -25.0748393     -49.7323536    -0.0137083421      8.27653823
4.056              -0.0134531216     -107.819148      -25.0603527      130.203087      -25.0607126     -49.8142651    -0.0137540888       8.2641375
4.0576             -0.0134968891      -107.97037      -25.0462089      130.121443       -25.046573      -49.896177    -0.0137997999      8.25173562
4.0592             -0.0135409622     -108.121661      -25.0320507      130.039792      -25.0324203     -49.9780905    -0.0138454778      8.23933253
4.0608             -0.0135853397     -108.273019      -25.0178783      129.958132      -25.0182546     -50.0600065    -0.0138911251      8.22692818
4.0624             -0.0136300206     -108.424446      -25.0036914      129.876462      -25.0040757     -50.1419263    -0.0139367443      8.21452253
4.064              -0.0136750037      -108.57594      -24.9894901      129.794781      -24.9898835     -50.2238507    -0.0139823382      8.20211553
4.0656             -0.0137202877     -108.727503      -24.9752742      129.713088      -24.9756779     -50.3057809    -0.0140279096      8.18970712
4.0672             -0.0137658714     -108.879133      -24.9610438      129.631381      -24.9614589     -50.3877181    -0.0140734617      8.17729726
4.0688             -0.0138117531     -109.030831      -24.9467987       129.54966      -24.9472264     -50.4696632    -0.0141189974       8.1648859
4.0704             -0.0138579313     -109.182598       -24.932539      129.467922      -24.9329803     -50.5516174    -0.0141645202      8.15247298
4.072              -0.0139044043     -109.334433      -24.9182645      129.386168      -24.9187205     -50.6335819    -0.0142100333      8.14005847
4.0736             -0.0139511704     -109.486336      -24.9039753      129.304395      -24.9044471     -50.7155576    -0.0142555402       8.1276423
4.0752             -0.0139982278     -109.638308      -24.8896714      129.222602      -24.8901599     -50.7975458    -0.0143010447      8.11522443
4.0768             -0.0140455743     -109.790348      -24.8753526      129.140789      -24.8758588     -50.8795476    -0.0143465505      8.10280482
4.0784              -0.014093208     -109.942456      -24.8610189      129.058953      -24.8615439     -50.9615642    -0.0143920615      8.09038341
4.08               -0.0141411268     -110.094633      -24.8466705      128.977094      -24.8472151     -51.0435965    -0.0144375818      8.07796015
4.0816             -0.0141893282     -110.246879      -24.8323071       128.89521      -24.8328723     -51.1256459    -0.0144831155        8.065535
4.0832             -0.0142378101     -110.399193      -24.8179289        128.8133      -24.8185155     -51.2077135    -0.0145286671      8.05310791
4.0848             -0.0142865699     -110.551577      -24.8035358      128.731363      -24.8041447     -51.2898003    -0.0145742409      8.04067883
4.0864              -0.014335605     -110.704029      -24.7891278      128.649397      -24.7897598     -51.3719076    -0.0146198416      8.02824772
4.088               -0.014384913      -110.85655      -24.7747049      128.567402      -24.7753608     -51.4540365    -0.0146654739      8.01581453
4.0896             -0.0144344909     -111.009141      -24.7602671      128.485375      -24.7609478     -51.5361882    -0.0147111427       8.0033792
4.0912              -0.014484336       -111.1618      -24.7458145      128.403317      -24.7465206     -51.6183638    -0.0147568531      7.99094171
4.0928             -0.0145344454     -111.314529       -24.731347      128.321224      -24.7320792     -51.7005645    -0.0148026102      7.97850199
4.0944             -0.0145848161     -111.467328      -24.7168648      128.239098      -24.7176238     -51.7827914    -0.0148484193      7.96606001
4.096               -0.014635445     -111.620196      -24.7023677      128.156935      -24.7031542     -51.8650457    -0.0148942859      7.95361572
4.0976             -0.0146863289     -111.773134      -24.6878559      128.074735      -24.6886704     -51.9473284    -0.0149402155      7.94116907
4.0992             -0.0147374646     -111.926142      -24.6733293      127.992496      -24.6741725     -52.0296409    -0.0149862141      7.92872003
4.1008             -0.0147888487      -112.07922      -24.6587881      127.910218      -24.6596604     -52.1119841    -0.0150322873      7.91626856
4.1024             -0.0148404779     -112.232368      -24.6442322      127.827899      -24.6451343     -52.1943593    -0.0150784413       7.9038146
4.104              -0.0148923487     -112.385586      -24.6296618      127.745539       -24.630594     -52.2767674    -0.0151246822      7.89135812
4.1056             -0.0149444575     -112.538875      -24.6150769      127.663134      -24.6160397     -52.3592098    -0.0151710164      7.87889907
4.1072             -0.0149968007     -112.692235      -24.6004775      127.580686      -24.6014713     -52.4416874    -0.0152174502      7.86643743
4.1088             -0.0150493747     -112.845665      -24.5858637      127.498192      -24.5868889     -52.5242014    -0.0152639903      7.85397314
4.1104             -0.0151021758     -112.999167      -24.5712356      127.415652      -24.5722926     -52.6067528    -0.0153106435      7.84150618
4.112              -0.0151552001      -113.15274      -24.5565933      127.333064      -24.5576823     -52.6893427    -0.0153574165       7.8290365
4.1136             -0.0152084438     -113.306385      -24.5419368      127.250427      -24.5430581     -52.7719722    -0.0154043164      7.81656406
4.1152              -0.015261903     -113.460101      -24.5272663       127.16774      -24.5284201     -52.8546423    -0.0154513503      7.80408884
4.1168             -0.0153155739     -113.613889      -24.5125818      127.085002      -24.5137684     -52.9373541    -0.0154985254       7.7916108
4.1184             -0.0153694525     -113.767749      -24.4978834      127.002212      -24.4991029     -53.0201085    -0.0155458493       7.7791299
4.12               -0.0154235348     -113.921681      -24.4831713      126.919369      -24.4844237     -53.1029066    -0.0155933293      7.76664612
4.1216             -0.0154778169     -114.075686      -24.4684455      126.836472       -24.469731     -53.1857494    -0.0156409731      7.75415942
4.1232             -0.0155322946     -114.229764      -24.4537062       126.75352      -24.4550247     -53.2686377    -0.0156887886      7.74166977
4.1248              -0.015586964     -114.383915      -24.4389534      126.670512      -24.4403051     -53.3515727    -0.0157367835      7.72917714
4.1264             -0.0156418211      -114.53814      -24.4241873      126.587447      -24.4255721      -53.434555    -0.0157849658      7.71668152
4.128              -0.0156968618     -114.692437      -24.4094081      126.504325      -24.4108258     -53.5175858    -0.0158333437      7.70418286
4.1296             -0.0157520822     -114.846809      -24.3946158      126.421144      -24.3960664     -53.6006658    -0.0158819254      7.69168116
4.1312             -0.0158074782     -115.001255      -24.3798106      126.337904      -24.3812939     -53.6837958    -0.0159307191      7.67917638
4.1328             -0.0158630458     -115.155776      -24.3649926      126.254603      -24.3665084     -53.7669768    -0.0159797332       7.6666685
4.1344             -0.0159187813     -115.310371       -24.350162      126.171242      -24.3517101     -53.8502095    -0.0160289762      7.65415751
4.136              -0.0159746806     -115.465041      -24.3353189      126.087819       -24.336899     -53.9334946    -0.0160784568      7.64164338
4.1376               -0.01603074     -115.619787      -24.3204635      126.004333      -24.3220753      -54.016833    -0.0161281834       7.6291261
4.1392             -0.0160869557     -115.774608      -24.3055959      125.920785       -24.307239     -54.1002252    -0.0161781649      7.61660566
4.1408             -0.0161433241     -115.929505      -24.2907163      125.837173      -24.2923903     -54.1836721    -0.0162284099      7.60408204
4.1424             -0.0161998415     -116.084479      -24.2758249      125.753497      -24.2775294     -54.2671741    -0.0162789274      7.59155524
4.144              -0.0162565045     -116.239529      -24.2609218      125.669756      -24.2626562      -54.350732    -0.0163297261      7.57902523
4.1456             -0.0163133097     -116.394657      -24.2460072       125.58595      -24.2477711     -54.4343462    -0.0163808149      7.56649202
4.1472             -0.0163702537     -116.549862      -24.2310812      125.502078       -24.232874     -54.5180174    -0.0164322029       7.5539556
4.1488             -0.0164273336     -116.705145      -24.2161441      125.418141      -24.2179652     -54.6017459    -0.0164838989      7.54141597
4.1504             -0.0164845463     -116.860506       -24.201196      125.334137      -24.2030448     -54.6855323    -0.0165359119      7.52887312
4.152              -0.0165418889     -117.015946      -24.1862371      125.250066      -24.1881128      -54.769377    -0.0165882509      7.51632705
4.1536              -0.016612306     -117.171463      -24.1712675       125.16593      -24.1731695     -54.8532789    -0.0166409247      7.50377778
4.1552             -0.0166828454      -117.32706      -24.1562875      125.081727      -24.1582149     -54.9372397    -0.0166939423       7.4912253
4.1568             -0.0167528889     -117.482736      -24.1412972      124.997457      -24.1432493     -55.0212599    -0.0167473125      7.47866962
4.1584             -0.0168224159     -117.638493      -24.1262969       124.91312      -24.1282728     -55.1053396    -0.0168010441      7.46611076
4.16                -0.016891407     -117.794331      -24.1112867      124.828715      -24.1132855      -55.189479    -0.0168551459      7.45354872
4.1616             -0.0169598441      -117.95025      -24.0962669      124.744243      -24.0982877     -55.2736783    -0.0169096266      7.44098352
4.1632             -0.0170277106      -118.10625      -24.0812376      124.659703      -24.0832794     -55.3579376    -0.0169644947      7.42841517
4.1648             -0.0170949911     -118.262333      -24.0661991      124.575097      -24.0682609     -55.4422568    -0.0170197586       7.4158437
4.1664             -0.0171616717     -118.418498      -24.0511515      124.490423      -24.0532322      -55.526636    -0.0170754266      7.40326913
4.168              -0.0172277403     -118.574746      -24.0360949      124.405683      -24.0381936     -55.6110752     -0.017131507      7.39069147
4.1696              -0.017293186     -118.731078      -24.0210297      124.320877      -24.0231451     -55.6955741    -0.0171880077      7.37811077
4.1712             -0.0173579999     -118.887494       -24.005956      124.236005       -24.008087     -55.7801327    -0.0172449365      7.36552705
4.1728             -0.0174221748     -119.043994       -23.990874      124.151068      -23.9930194     -55.8647506     -0.017302301      7.35294034
4.1744             -0.0174857051      -119.20058      -23.9757839      124.066065      -23.9779424     -55.9494277    -0.0173601086      7.34035067
4.176              -0.0175485874     -119.357251      -23.9606858      123.980999      -23.9628563     -56.0341636    -0.0174183665      7.32775809
4.1776               -0.01761082     -119.514008        -23.94558      123.895868      -23.9477611     -56.1189578    -0.0174770814      7.31516264
4.1792             -0.0176724035     -119.670851      -23.9304666      123.810675      -23.9326569     -56.2038099    -0.0175362599      7.30256435
4.1808             -0.0177333402     -119.827782      -23.9153458       123.72542       -23.917544     -56.2887195    -0.0175959083      7.28996327
4.1824             -0.0177936349     -119.984801      -23.9002178      123.640103      -23.9024225     -56.3736859    -0.0176560325      7.27735946
4.184              -0.0178532947     -120.141907      -23.8850828      123.554726      -23.8872926     -56.4587085    -0.0177166379      7.26475295
4.1856             -0.0179123286     -120.299102      -23.8699409       123.46929      -23.8721542     -56.5437866    -0.0177777298      7.25214382
4.1872             -0.0179707484     -120.456387      -23.8547922      123.383796      -23.8570077     -56.6289195    -0.0178393127       7.2395321
4.1888             -0.0180285682     -120.613761       -23.839637      123.298244      -23.8418531     -56.7141063     -0.017901391      7.22691786
4.1904             -0.0180858045     -120.771225      -23.8244754      123.212637      -23.8266905     -56.7993462    -0.0179639684      7.21430117
4.192              -0.0181424765     -120.928781      -23.8093074      123.126975        -23.81152     -56.8846383    -0.0180270482      7.20168208
4.1936              -0.018198606     -121.086428      -23.7941333      123.041259      -23.7963418     -56.9699815     -0.018090633      7.18906066
4.1952             -0.0182542177     -121.244166      -23.7789532      122.955492       -23.781156     -57.0553749     -0.018154725      7.17643698
4.1968             -0.0183093387     -121.401997      -23.7637672      122.869674      -23.7659625     -57.1408173    -0.0182193256      7.16381111
4.1984             -0.0183639991     -121.559922      -23.7485753      122.783808      -23.7507617     -57.2263075    -0.0182844358      7.15118312
4.2                 -0.018418232     -121.717939      -23.7333777      122.697894      -23.7355534     -57.3118444    -0.0183500558      7.13855309
4.2016             -0.0184720733     -121.876051      -23.7181745      122.611935      -23.7203378     -57.3974266     -0.018416185      7.12592109
4.2032             -0.0185255618     -122.034258      -23.7029657      122.525932      -23.7051149     -57.4830529    -0.0184828221       7.1132872
4.2048             -0.0185787394     -122.192559      -23.6877514      122.439887      -23.6898848     -57.5687219    -0.0185499652       7.1006515
4.2064              -0.018631651     -122.350957      -23.6725317      122.353802      -23.6746475     -57.6544322    -0.0186176112      7.08801408
4.208              -0.0186843447      -122.50945      -23.6573065      122.267678      -23.6594031     -57.7401823    -0.0186857566      7.07537501
4.2096             -0.0187368716      -122.66804      -23.6420759      122.181518      -23.6441514     -57.8259706    -0.0187543966      7.06273438
4.2112             -0.0187892859     -122.826728      -23.6268399      122.095324      -23.6288927     -57.9117957    -0.0188235257      7.05009227
4.2128             -0.0188416449     -122.985513      -23.6115984      122.009098      -23.6136268      -57.997656    -0.0188931373      7.03744877
4.2144             -0.0188940092     -123.144396      -23.5963516      121.922841      -23.5983536     -58.0835498    -0.0189632239      7.02480396
4.216              -0.0189464424     -123.303377      -23.5810992      121.836556      -23.5830732     -58.1694754    -0.0190337769      7.01215793
4.2176             -0.0190108097     -123.462456      -23.5658411      121.750247      -23.5677855       -58.25543    -0.0191047866      6.99951076
4.2192             -0.0190755573     -123.621634      -23.5505773      121.663914      -23.5524903     -58.3414131    -0.0191762421      6.98686254
4.2208             -0.0191406948     -123.780912      -23.5353079      121.577559      -23.5371876     -58.4274229    -0.0192481316      6.97421335
4.2224             -0.0192062419      -123.94029      -23.5200325      121.491186      -23.5218774     -58.5134577    -0.0193204419      6.96156327
4.224              -0.0192722195     -124.099769      -23.5047511      121.404795      -23.5065595     -58.5995158    -0.0193931585      6.94891237
4.2256              -0.019338649     -124.259348      -23.4894635       121.31839      -23.4912337     -58.6855954    -0.0194662657      6.93626075
4.2272             -0.0194055523     -124.419029      -23.4741695      121.231972      -23.4758999     -58.7716948    -0.0195397467      6.92360847
4.2288             -0.0194729523     -124.578811      -23.4588689      121.145544      -23.4605579     -58.8578122    -0.0196135832       6.9109556
4.2304             -0.0195408722     -124.738695      -23.4435615      121.059108      -23.4452075     -58.9439459    -0.0196877554      6.89830222
4.232              -0.0196093361     -124.898681       -23.428247      120.972666      -23.4298484     -59.0300943    -0.0197622424      6.88564838
4.2336             -0.0196783684      -125.05877      -23.4129252       120.88622      -23.4144805     -59.1162556    -0.0198370218      6.87299414
4.2352             -0.0197479941      -125.21896      -23.3975956      120.799773      -23.3991034     -59.2024284    -0.0199120697      6.86033956
4.2368             -0.0198182387     -125.379254       -23.382258      120.713327      -23.3837169     -59.2886108    -0.0199873609      6.84768468
4.2384              -0.019889128     -125.539649      -23.3669121      120.626883      -23.3683207     -59.3748016    -0.0200628685      6.83502954
4.24                -0.019960688     -125.700148      -23.3515573      120.540444      -23.3529144     -59.4609993    -0.0201385646      6.82237417
4.2416             -0.0200329454     -125.860749      -23.3361934      120.454011      -23.3374976     -59.5472024    -0.0202144194      6.80971859
4.2432             -0.0201059264     -126.021453      -23.3208198      120.367586        -23.32207     -59.6334097    -0.0202904019      6.79706282
4.2448             -0.0201796579      -126.18226      -23.3054362      120.281171      -23.3066312     -59.7196201    -0.0203664795      6.78440685
4.2464             -0.0202541663      -126.34317      -23.2900419      120.194768      -23.2911807     -59.8058325    -0.0204426185      6.77175068
4.248              -0.0203294781     -126.504182      -23.2746365      120.108377      -23.2757181      -59.892046    -0.0205187835      6.75909429
4.2496             -0.0204056195     -126.665296      -23.2592195         120.022       -23.260243     -59.9782598    -0.0205949379      6.74643764
4.2512             -0.0204826163     -126.826512      -23.2437902      119.935638      -23.2447548     -60.0644733    -0.0206710438      6.73378068
4.2528             -0.0205604938      -126.98783       -23.228348      119.849292       -23.229253      -60.150686    -0.0207470621      6.72112335
4.2544             -0.0206392764     -127.149249      -23.2128923      119.762962      -23.2137371     -60.2368976    -0.0208229525      6.70846556
4.256               -0.020718988     -127.310769      -23.1974225       119.67665      -23.1982065     -60.3231081    -0.0208986737      6.69580721
4.2576             -0.0207996513      -127.47239      -23.1819379      119.590354      -23.1826607     -60.4093175    -0.0209741833      6.68314818
4.2592             -0.0208812876      -127.63411      -23.1664377      119.504076       -23.167099     -60.4955263    -0.0210494382      6.67048834
4.2608             -0.0209639171      -127.79593      -23.1509213      119.417815      -23.1515209      -60.581735    -0.0211243945      6.65782752
4.2624             -0.0210475582     -127.957849      -23.1353879      119.331571      -23.1359257     -60.6679445    -0.0211990078      6.64516554
4.264              -0.0211322275     -128.119866      -23.1198367      119.245342      -23.1203128     -60.7541559    -0.0212732334      6.63250219
4.2656             -0.0212179393      -128.28198       -23.104267      119.159127      -23.1046815     -60.8403708    -0.0213470262      6.61983723
4.2672             -0.0213047058     -128.444191       -23.088678      119.072925      -23.0890312     -60.9265908    -0.0214203414       6.6071704
4.2688             -0.0213925363     -128.606497      -23.0730688      118.986733      -23.0733612      -61.012818    -0.0214931343      6.59450141
4.2704             -0.0214814373     -128.768898      -23.0574387       118.90055      -23.0576709     -61.0990548     -0.021565361      6.58182994
4.272               -0.021571412     -128.931393      -23.0417869      118.814373      -23.0419595     -61.1853041    -0.0216369782      6.56915564
4.2736             -0.0216624601      -129.09398      -23.0261125      118.728198      -23.0262264     -61.2715689    -0.0217079439      6.55647813
4.2752             -0.0217545773     -129.256659      -23.0104147      118.642022       -23.010471     -61.3578529     -0.021778218      6.54379699
4.2768             -0.0218477551     -129.419429      -22.9946928      118.555841      -22.9946926       -61.44416    -0.0218477619      6.53111176
4.2784             -0.0219708527     -129.582281      -22.9789455      118.469654      -22.9788903     -61.5304919    -0.0219165399      6.51842197
4.28               -0.0220971787     -129.745222      -22.9631725      118.383451      -22.9630637     -61.6168559     -0.021984519      6.50572709
4.2816             -0.0222265462     -129.908248      -22.9473729      118.297229      -22.9472122     -61.7032573    -0.0220516697      6.49302655
4.2832             -0.0223588915      -130.07136      -22.9315461       118.21098      -22.9313354     -61.7897018    -0.0221179666      6.48031976
4.2848             -0.0224941322     -130.234554      -22.9156915      118.124699      -22.9154326     -61.8761956    -0.0221833888      6.46760608
4.2864             -0.0226321658     -130.397831      -22.8998082      118.038378      -22.8995035     -61.9627454    -0.0222479209      6.45488484
4.288              -0.0227728685     -130.561189      -22.8838959      117.952009      -22.8835476     -62.0493583    -0.0223115536      6.44215532
4.2896             -0.0229160939     -130.724625      -22.8679539      117.865585      -22.8675646     -62.1360417    -0.0223742842      6.42941677
4.2912              -0.023061672      -130.88814      -22.8519818      117.779096      -22.8515543     -62.2228039    -0.0224361178      6.41666842
4.2928             -0.0232094078     -131.051731      -22.8359793      117.692533      -22.8355163     -62.3096533    -0.0224970679      6.40390943
4.2944             -0.0233590802     -131.215397       -22.819946      117.605886      -22.8194506     -62.3965988    -0.0225571575      6.39113895
4.296              -0.0235104411     -131.379137      -22.8038817      117.519145      -22.8033571     -62.4836497      -0.02261642      6.37835609
4.2976              -0.023663214     -131.542949      -22.7877865      117.432299       -22.787236     -62.5708159    -0.0226749002      6.36555996
4.2992             -0.0238170935     -131.706833      -22.7716604      117.345337      -22.7710875     -62.6581072    -0.0227326552       6.3527496
4.3008             -0.0239717445     -131.870787      -22.7555035      117.258247      -22.7549119     -62.7455343    -0.0227897561      6.33992407
4.3024              -0.024126801      -132.03481      -22.7393162      117.171017      -22.7387097     -62.8331077    -0.0228462883       6.3270824
4.304              -0.0242818666     -132.198902      -22.7230989      117.083635      -22.7224814     -62.9208382    -0.0229023531      6.31422362
4.3056             -0.0244365135     -132.363061      -22.7068525      116.996087       -22.706228      -63.008737    -0.0229580692      6.30134677
4.3072             -0.0245902831     -132.527288      -22.6905776      116.908362      -22.6899503      -63.096815    -0.0230135732      6.28845089
4.3088              -0.024742686     -132.691582      -22.6742754      116.820446      -22.6736495     -63.1850832    -0.0230690212      6.27553504
4.3104              -0.024893203     -132.855943      -22.6579472      116.732326       -22.657327     -63.2735525    -0.0231245896      6.26259834
4.312              -0.0250412865     -133.020371      -22.6415943       116.64399      -22.6409842     -63.3622336    -0.0231804768      6.24963994