! Touchstone file exported from HFSS 3D Layout Design 2020.1.0
!        File:           *Path_to_file*
!        Generated:      11:17:10 AM  May 13, 2020
!        Design:         Spiral
!        Project:        Spiral_Inductor_Microstrip
!        Setup:          HFSS Setup
!        Solution:       Sweep 1
!
# GHZ S MA R 50.000000
! Terminal data exported
! Port[1] = Port1
! Port[2] = Port2
1                              0.0547728234577951 -38.3738047913831 0.99813496577358 -60.2283915679341 0.998134965773579 -60.228391567934 0.0543971977664436 97.4481267367799 
! Gamma         -0               51.3987323033759 0                0                0                0                -0               51.4044656498624 
! Port Impedance50               0                0                0                0                0                50               0                

1.1                            0.0639312453066896 -45.4947761724505 0.99755070903623 -66.323149440603 0.997550709036229 -66.323149440603 0.0635309255435076 92.4115811280237 
! Gamma         0                56.5425890136439 0                0                0                0                0                56.5488900578967 
! Port Impedance50               0                0                0                0                0                50               0                

1.2                            0.0733233299296026 -52.324647532291 0.996866292451519 -72.435090780092 0.996866292451519 -72.4350907800919 0.0729058013114257 87.0447463802602 
! Gamma         0                61.6875814490559 0                0                0                0                0                61.69444858118   
! Port Impedance50               0                0                0                0                0                50               0                

1.3                            0.0827960931550654 -58.9031044018577 0.996088322083697 -78.5648025366743 0.996088322083696 -78.5648025366743 0.0823704565706473 81.3876586163512 
! Gamma         0                66.8338117611859 0                0                0                0                0                66.8412432252393 
! Port Impedance50               0                0                0                0                0                50               0                

1.4                            0.0921925452765428 -65.2550529540889 0.995229478819033 -84.7129332246484 0.995229478819033 -84.7129332246484 0.0917693847298576 75.4650363769509 
! Gamma         0                71.9813818157692 0                0                0                0                0                71.9893757098552 
! Port Impedance50               0                0                0                0                0                50               0                

1.5                            0.101354846218063 -71.3940460545911 0.99430839722627 -90.8802933311467 0.994308397226271 -90.8802933311467 0.100946026119285 69.2896656465887 
! Gamma         0                77.1303931689407 0                0                0                0                0                77.1389474453    
! Port Impedance50               0                0                0                0                0                50               0                

1.6                            0.110127801881558 -77.3243734380647 0.993349090086956 -97.0679587023527 0.993349090086955 -97.0679587023527 0.109746196152646 62.8643863654412 
! Gamma         0                82.2809470434875 0                0                0                0                0                82.2900595086073 
! Port Impedance50               0                0                0                0                0                50               0                

1.7                            0.118362779200133 -83.042220420888 0.992379896140895 -103.27737107951 0.992379896140894 -103.27737107951 0.118021928587547 56.1831232645505 
! Gamma         0                87.4331443051182 0                0                0                0                0                87.4428126198531 
! Port Impedance50               0                0                0                0                0                50               0                

1.8                            0.125922166520997 -88.5361374685636 0.99143195024198 -109.51042947107 0.991431950241981 -109.51042947107 0.125635854165047 49.2312302692413 
! Gamma         0                92.5870854387535 0                0                0                0                0                92.5973071184595 
! Port Impedance50               0                0                0                0                0                50               0                

1.9                            0.132684584532773 -93.7869708798324 0.990537195874319 -115.769565796056 0.990537195874319 -115.769565796056 0.132466311985799 41.9853195887679 
! Gamma         0                97.7428705247959 0                0                0                0                0                97.7536429395268 
! Port Impedance50               0                0                0                0                0                50               0                

2                              0.138551160092328 -98.767365236946 0.989725978828982 -122.057798169593 0.989725978828981 -122.057798169593 0.138413496116384 34.4127027552576 
! Gamma         0                102.900599216606 0                0                0                0                0                102.911919590194 
! Port Impedance50               0                0                0                0                0                50               0                

2.1                            0.143453305484956 -103.440960961744 0.98902427790303 -128.378755265412 0.98902427790303 -128.378755265412 0.143407068042825 26.4705790043637 
! Gamma         0                108.060370712529 0                0                0                0                0                108.072236126029 
! Port Impedance50               0                0                0                0                0                50               0                

2.2                            0.147362580100382 -107.761493473124 0.988450645200591 -134.736665330364 0.988450645200591 -134.736665330364 0.147415799113511 18.1051826376322 
! Gamma         0                113.222283739638 0                0                0                0                0                113.234691127459 
! Port Impedance50               0                0                0                0                0                50               0                

2.3                            0.15030329989111 -111.672194323574 0.988012947743125 -141.136303626738 0.988012947743125 -141.136303626738 0.150459898754998 9.2512829828935  
! Gamma         0                118.386436523924 0                0                0                0                0                118.399382676242 
! Port Impedance50               0                0                0                0                0                50               0                

2.4                            0.152368483896851 -115.106261984708 0.987705027402568 -147.582892382328 0.987705027402569 -147.582892382328 0.152626622623172 -0.167222269667221 
! Gamma         0                123.552926769406 0                0                0                0                0                123.566408331978 
! Port Impedance50               0                0                0                0                0                50               0                

2.5                            0.153739238622498 -117.989774436287 0.987503431736406 -154.081947876343 0.987503431736406 -154.081947876343 0.154089306127514 -10.2343049318937 
! Gamma         0                128.721851634297 0                0                0                0                0                128.735865108677 
! Port Impedance50               0                0                0                0                0                50               0                

2.6                            0.154706329702538 -120.249226975017 0.987364417453415 -160.639070324692 0.987364417453415 -160.639070324692 0.155128705313215 -21.034299359029 
! Gamma         0                133.893307707589 0                0                0                0                0                133.907849451379 
! Port Impedance50               0                0                0                0                0                50               0                

2.7                            0.155689842358467 -121.826517147455 0.987221491840403 -167.259674117577 0.987221491840402 -167.259674117577 0.156152836187944 -32.6371484600586 
! Gamma         0                139.067390985721 0                0                0                0                0                139.082457212839 
! Port Impedance50               0                0                0                0                0                50               0                

2.8                            0.157248095062545 -122.703489561239 0.986983831823097 -173.948659154777 0.986983831823097 -173.948659154777 0.157706963361888 -45.0742307563543 
! Gamma         0                144.244196849304 0                0                0                0                0                144.259783630277 
! Port Impedance50               0                0                0                0                0                50               0                

2.9                            0.16006154909422 -122.93395757888 0.986535994475393 179.28997100817  0.986535994475393 179.28997100817  0.160460016902286 -58.306414359384 
! Gamma         0                149.423820039924 0                0                0                0                0                149.4399233022   
! Port Impedance50               0                0                0                0                0                50               0                

3                              0.164876269659017 -122.672066086968 0.985739386419445 172.45353140921  0.985739386419445 172.45353140921  0.165152023883635 -72.1945358769246 
! Gamma         0                154.606354637026 0                0                0                0                0                154.622970165314 
! Port Impedance50               0                0                0                0                0                50               0                

3.1                            0.172402738798638 -122.176429372155 0.984435962148592 165.541096337874 0.984435962148591 165.541096337874 0.172497061223239 -86.492005214699 
! Gamma         0                159.791894034886 0                0                0                0                0                159.80901747151  
! Port Impedance50               0                0                0                0                0                50               0                

3.2                            0.183191832987479 -121.772843891955 0.98245453515482 158.553925739558 0.98245453515482 158.553925739558 0.183060947680066 -100.877346909677 
! Gamma         0                164.980530919673 0                0                0                0                0                164.998157764961 
! Port Impedance50               0                0                0                0                0                50               0                

3.3                            0.197533732755723 -121.782982194735 0.979619874643754 151.495834056889 0.979619874643753 151.495834056889 0.19715754177791 -115.021869351835 
! Gamma         0                170.172357246622 0                0                0                0                0                170.190482859314 
! Port Impedance50               0                0                0                0                0                50               0                

3.4                            0.215420231667855 -122.45401325629 0.975764405525365 144.373450088022 0.975764405525365 144.373450088022 0.214805249220581 -128.659873698636 
! Gamma         0                175.367464217308 0                0                0                0                0                175.386083814997 
! Port Impedance50               0                0                0                0                0                50               0                

3.5                            0.236575102502053 -123.923380073253 0.970741848572197 137.196314119908 0.970741848572196 137.196314119908 0.235751819105979 -141.626707171964 
! Gamma         0                180.565942257054 0                0                0                0                0                180.585050916647 
! Port Impedance50               0                0                0                0                0                50               0                

3.6                            0.260524096217702 -126.224876752939 0.964441603851236 129.976765310528 0.964441603851235 129.976765310528 0.259541466743651 -153.856112328328 
! Gamma         0                185.767880992454 0                0                0                0                0                185.78747365068  
! Port Impedance50               0                0                0                0                0                50               0                

3.7                            0.286671137769921 -129.318264732465 0.956802222394241 122.729590051441 0.95680222239424 122.729590051441 0.285590852967909 -165.353016696246 
! Gamma         0                190.973369229047 0                0                0                0                0                190.993440683161 
! Port Impedance50               0                0                0                0                0                50               0                

3.8                            0.314362142317304 -133.122077802793 0.947822087261659 115.471430215997 0.947822087261658 115.471430215997 0.313253998585843 -176.162129800368 
! Gamma         0                196.182494929136 0                0                0                0                0                196.203039836463 
! Port Impedance50               0                0                0                0                0                50               0                

3.9                            0.342932853845228 -137.538864435181 0.937565569949653 108.219984680509 0.937565569949652 108.219984680509 0.341871395460839 173.656218434353 
! Gamma         0                201.395345189765 0                0                0                0                0                201.416358070158 
! Port Impedance50               0                0                0                0                0                50               0                

4                              0.371743769956677 -142.470972231589 0.926163485455117 100.99307108676  0.926163485455117 100.99307108676  0.370805898383922 164.040630651519 
! Gamma         0                206.612006220872 0                0                0                0                0                206.633481455812 
! Port Impedance50               0                0                0                0                0                50               0                

4.1                            0.400205673016224 -147.828970033465 0.913807550053859 93.807639108901  0.913807550053858 93.807639108901  0.39946887880693 154.935601114014 
! Gamma         0                211.832563323621 0                0                0                0                0                211.85449515738  
! Port Impedance50               0                0                0                0                0                50               0                

4.2                            0.427797708643311 -153.535414360909 0.900739537939744 86.6788348220152 0.900739537939743 86.6788348220151 0.427338694457484 146.293741464277 
! Gamma         0                217.057100868931 0                0                0                0                0                217.079483409237 
! Port Impedance50               0                0                0                0                0                50               0                

4.3                            0.45407868172398 -159.526014340024 0.887236673102158 79.6192057914684 0.887236673102158 79.6192057914684 0.453972257371325 138.075543223157 
! Gamma         0                222.285702276205 0                0                0                0                0                222.308529494973 
! Port Impedance50               0                0                0                0                0                50               0                

4.4                            0.478691857877628 -165.749464271685 0.873595266339709 72.6381111419447 0.873595266339709 72.6381111419447 0.479010055167449 130.248123297569 
! Gamma         0                227.518449992285 0                0                0                0                0                227.541715726382 
! Port Impedance50               0                0                0                0                0                50               0                

4.5                            0.501363821849645 -172.166646021553 0.860114626425889 65.7413671559209 0.860114626425889 65.7413671559209 0.502175201453564 122.78375354722  
! Gamma         0                232.755425470637 0                0                0                0                0                232.77912342269  
! Port Impedance50               0                0                0                0                0                50               0                

4.6                            0.521898430381143 -178.749567943417 0.847082896860456 58.931125326672  0.847082896860456 58.9311253266721 0.523267550494513 115.658559392682 
! Gamma         0                237.996709150772 0                0                0                0                0                238.020832890017 
! Port Impedance50               0                0                0                0                0                50               0                

4.7                            0.540167284479865 174.519770415834 0.834765855066951 52.2059532365517 0.83476585506695 52.2059532365517 0.542154286197452 108.851531796256 
! Gamma         0                243.242380437941 0                0                0                0                0                243.266923401111 
! Port Impedance50               0                0                0                0                0                50               0                

4.8                            0.556098288234173 167.650487160857 0.823399046849778 45.5610729185633 0.823399046849778 45.5610729185634 0.558758534694614 102.343870521787 
! Gamma         0                248.492517683082 0                0                0                0                0                248.517473175342 
! Port Impedance50               0                0                0                0                0                50               0                

4.9                            0.56966375850403 160.643844553913 0.813183065374017 38.9887068119751 0.813183065374018 38.9887068119751 0.573047448730439 96.1186189786829 
! Gamma         0                253.747198163074 0                0                0                0                0                253.77255935899  
! Port Impedance50               0                0                0                0                0                50               0                

5                              0.580869284229815 153.494162784266 0.804281401040834 32.4784858636647 0.804281401040834 32.4784858636647 0.58502094956046 90.1605323589057 
! Gamma         0                259.006498061268 0                0                0                0                0                259.032258005835 
! Port Impedance50               0                0                0                0                0                50               0                

5.1                            0.589744208481924 146.189608369802 0.796820098947081 26.0178844655872 0.796820098947081 26.0178844655873 0.594701989075921 84.4561223878456 
! Gamma         0                264.270492448354 0                0                0                0                0                264.296644058053 
! Port Impedance50               0                0                0                0                0                50               0                

5.2                            0.596334304058004 138.712859432528 0.79088843194834 19.5926595370635 0.79088843194834 19.5926595370635 0.602128894209568 78.9938322117396 
! Gamma         0                269.539255263542 0                0                0                0                0                269.565791327453 
! Port Impedance50               0                0                0                0                0                50               0                

5.3                            0.600696982241658 131.041664056455 0.786539880007301 13.1872836850454 0.786539880007301 13.1872836850454 0.607350125735456 73.7643066738977 
! Gamma         0                274.812859296093 0                0                0                0                0                274.839772477054 
! Port Impedance50               0                0                0                0                0                50               0                

5.4                            0.602899227119214 123.149322211647 0.783792854226371 6.78537343965582 0.783792854226371 6.78537343965582 0.610421638638122 68.7607321920236 
! Gamma         0                280.091376167208 0                0                0                0                0                280.118659003018 
! Port Impedance50               0                0                0                0                0                50               0                

5.5                            0.60301837013726 115.005137663384 0.782630784927575 0.370122226076743 0.782630784927575 0.370122226076784 0.611406959131417 63.9792238091662 
! Gamma         0                285.374876312294 0                0                0                0                0                285.402521216966 
! Port Impedance50               0                0                0                0                0                50               0                

5.6                            0.601145777158173 106.574905630142 0.783001392510296 -6.07524644712907 0.783001392510296 -6.07524644712911 0.610380063304129 59.4192324446586 
! Gamma         0                290.663428963614 0                0                0                0                0                290.691428228679 
! Port Impedance50               0                0                0                0                0                50               0                

5.7                            0.597393463304794 97.8215267157002 0.784815176430645 -12.5669875129147 0.784815176430644 -12.5669875129147 0.607431109138449 55.0839305487143 
! Gamma         0                295.957102133347 0                0                0                0                0                295.985447929203 
! Port Impedance50               0                0                0                0                0                50               0                

5.8                            0.591903514751808 88.7058694976042 0.787943397204158 -19.1202877226681 0.787943397204158 -19.1202877226681 0.602674978882767 50.9805067446998 
! Gamma         0                301.255962597064 0                0                0                0                0                301.284646974382 
! Port Impedance50               0                0                0                0                0                50               0                

5.9                            0.58485990270341 79.1880430632726 0.79221609202006 -25.7486528730477 0.792216092020061 -25.7486528730476 0.596262361076836 47.1202577126625 
! Gamma         0                306.560075877648 0                0                0                0                0                306.589090768821 
! Port Impedance50               0                0                0                0                0                50               0                

6                              0.57650173807533 69.2292820708825 0.797420945491148 -32.4632293915031 0.797420945491148 -32.463229391503 0.588392661829655 43.5183094366817 
! Gamma         0                311.869506229655 0                0                0                0                0                311.898843450303 
! Port Impedance50               0                0                0                0                0                50               0                

6.1                            0.567136169826292 58.7946759704337 0.803304095721884 -39.2720786792462 0.803304095721885 -39.2720786792462 0.579327315621407 40.1927382375269 
! Gamma         0                317.184316624149 0                0                0                0                0                317.213967874677 
! Port Impedance50               0                0                0                0                0                50               0                

6.2                            0.557147985875311 47.8569585174291 0.809574118276467 -46.1794465654714 0.809574118276468 -46.1794465654713 0.569401055490748 37.1628175103491 
! Gamma         0                322.504568734016 0                0                0                0                0                322.53452560122  
! Port Impedance50               0                0                0                0                0                50               0                

6.3                            0.547001719768027 36.4014565021381 0.815910387252686 -53.1850978685373 0.815910387252687 -53.1850978685373 0.559027524918243 34.4461343562627 
! Gamma         0                327.83032291978  0                0                0                0                0                327.860576878505 
! Port Impedance50               0                0                0                0                0                50               0                

6.4                            0.537231187304155 24.4320006107651 0.821976641267385 -60.2838120186104 0.821976641267386 -60.2838120186104 0.548694633322793 32.0544717718159 
! Gamma         0                333.161638215925 0                0                0                0                0                333.192180630781 
! Port Impedance50               0                0                0                0                0                50               0                

6.5                            0.52841173187589 11.9770686689697 0.827439800693581 -67.4651514698318 0.827439800693583 -67.4651514698318 0.5389449532465  29.9887115362929 
! Gamma         0                338.498572317752 0                0                0                0                0                338.529394444874 
! Port Impedance50               0                0                0                0                0                50               0                

6.6                            0.521113085731044 -0.905281681788974 0.831992925505069 -74.7136101037541 0.831992925505071 -74.7136101037541 0.53033813503347 28.233595372933  
! Gamma         0                343.841181568769 0                0                0                0                0                343.872274557638 
! Port Impedance50               0                0                0                0                0                50               0                

6.7                            0.515836219695813 -14.1257344550779 0.835379887865533 -82.0092159327512 0.835379887865534 -82.0092159327513 0.523396465602747 26.7538364739191 
! Gamma         0                349.189520948651 0                0                0                0                0                349.220875843962 
! Port Impedance50               0                0                0                0                0                50               0                

6.8                            0.51294486627106 -27.5672815819296 0.837418258655239 -89.3286001754628 0.83741825865524 -89.3286001754629 0.518540965838388 25.4934133069    
! Gamma         0                354.543644061755 0                0                0                0                0                354.575251805341 
! Port Impedance50               0                0                0                0                0                50               0                

6.9                            0.512608352563726 -41.0948349753135 0.838016535238073 -96.6464632700664 0.838016535238074 -96.6464632700664 0.516031632060613 24.3794109138444 
! Gamma         0                359.903603126237 0                0                0                0                0                359.93545455904  
! Port Impedance50               0                0                0                0                0                50               0                

7                              0.514772688064123 -54.569517350112 0.837182479819575 -103.937288325903 0.837182479819575 -103.937288325903 0.515927943526646 23.3303240497965 
! Gamma         0                365.269448963754 0                0                0                0                0                365.301534827855 
! Port Impedance50               0                0                0                0                0                50               0                

7.1                            0.519169397887979 -67.8642037723869 0.835020945522394 -111.177098708353 0.835020945522392 -111.177098708353 0.518081694501136 22.2668607343122 