! TOUCHSTONE file generated by CST MICROWAVE STUDIO
! Date and time: Sun Mar  9 23:06:01 2025
! Project name: Mas_optimizable_C_dobleP.cst
! Parameters = {Lc4=5.13164; Cz=-21.3846; H=17; Hbl=8.88143; Hbt=5; Hl=7.58026; Hposte=4.23344; Hposte2=2.90011; Ht=10.006; L=2; Lb1=2; Lb2=3.40895; Lc1=5.22891; Lc2=1.15568; Lc3=0.1; Ldielectrico=9.906; Lextra=8.382; Lextra2=12.446; Lp1=7; Lp2=8; Lp3=2; Pb2=0; Rposte=0.9; Rposte2=0.816232; W=34; W2=33.659; Wb=34; aux_p1=3.5; aux_p2=-12.7289; despx=0; dxposte=0; dxposte2=-3.2; opcion=1; posb=-25.4846; target=-29; thickness=2}
! Header version: 2018
! Port assignment regex: !\s*Touchstone port\s*([0-9]+)\s*=\s*(CST MWS port|CST DS port)\s*([0-9]+|Zmin|Zmax)\s*\(\"(.*)\"\)(\s*mode\s*([0-9]+))?.*
! Touchstone port assignment:
! Touchstone port 1 = CST MWS port 1 ("")
! Touchstone port 2 = CST MWS port 2 ("")
! S-Parameters are not renormalized. Unphysical impedance of 50 will be written to the file.
# GHz S MA R 50
4.5                  0.776214727      52.3367497      0.630035328     -28.7359126      0.630035485     -28.7361149      0.776461784      70.1960179
4.501                0.774996288      52.2593277      0.631490138     -29.0708489      0.631490299     -29.0710456      0.775622345      69.6072712
4.502                0.773783359       52.181948      0.632934853     -29.4045748      0.632935018     -29.4047662      0.774772912      69.0205911
4.503                0.772575863      52.1046099      0.634369579     -29.7371011      0.634369749     -29.7372871      0.773913799       68.435971
4.504                0.771373727       52.027313       0.63579442     -30.0684382      0.635794594     -30.0686192      0.773045313      67.8534042
4.505                0.770176878      51.9500566      0.637209479     -30.3985968      0.637209657     -30.3987727      0.772167756      67.2728839
4.506                0.768985247      51.8728404      0.638614857     -30.7275872       0.63861504     -30.7277582      0.771281426      66.6944027
4.507                0.767798762      51.7956637      0.640010656     -31.0554195      0.640010843     -31.0555858      0.770386615      66.1179533
4.508                0.766617357      51.7185262      0.641396974     -31.3821041      0.641397166     -31.3822657      0.769483612      65.5435279
4.509                0.765440964      51.6414274      0.642773911     -31.7076508      0.642774107     -31.7078079      0.768572699      64.9711188
4.51                 0.764269517      51.5643667      0.644141563     -32.0320698      0.644141764     -32.0322225      0.767654154      64.4007177
4.511                0.763102952      51.4873439      0.645500028     -32.3553707      0.645500233     -32.3555191       0.76672825      63.8323165
4.512                0.761941206      51.4103584        0.6468494     -32.6775633      0.646849609     -32.6777076      0.765795255      63.2659065
4.513                0.760784218      51.3334099      0.648189774     -32.9986573      0.648189988     -32.9987975      0.764855432      62.7014792
4.514                0.759631925       51.256498      0.649521243     -33.3186623      0.649521461     -33.3187985       0.76390904      62.1390258
4.515                0.758484269      51.1796223      0.650843899     -33.6375875      0.650844122     -33.6377199      0.762956332      61.5785371
4.516                0.757341191      51.1027825      0.652157834     -33.9554424      0.652158062     -33.9555711      0.761997556      61.0200041
4.517                0.756202634      51.0259782      0.653463138     -34.2722363       0.65346337     -34.2723612      0.761032956      60.4634173
4.518                0.755068541       50.949209        0.6547599     -34.5879781      0.654760136     -34.5880995       0.76006277      59.9087674
4.519                0.753938857      50.8724747      0.656048208     -34.9026771      0.656048448      -34.902795      0.759087234      59.3560448
4.52                 0.752813528       50.795775      0.657328149     -35.2163421      0.657328393     -35.2164567      0.758106575      58.8052396
4.521                  0.7516925      50.7191095      0.658599809      -35.528982      0.658600058     -35.5290933      0.757121019      58.2563422
4.522                0.750575721      50.6424779      0.659863275     -35.8406055      0.659863528     -35.8407137      0.756130786      57.7093424
4.523                0.749463139        50.56588      0.661118629     -36.1512214      0.661118886     -36.1513265      0.755136091      57.1642302
4.524                0.748354705      50.4893155      0.662365955     -36.4608383      0.662366217     -36.4609403      0.754137144      56.6209954
4.525                0.747250368      50.4127841      0.663605337     -36.7694645      0.663605602     -36.7695636      0.753134152      56.0796278
4.526                0.746150079      50.3362855      0.664836854     -37.0771086      0.664837123     -37.0772048      0.752127316       55.540117
4.527                0.745053792      50.2598197      0.666060587     -37.3837788       0.66606086     -37.3838722      0.751116833      55.0024525
4.528                0.743961458      50.1833862      0.667276616     -37.6894834      0.667276893     -37.6895741      0.750102897      54.4666239
4.529                0.742873033      50.1069848       0.66848502     -37.9942305      0.668485301     -37.9943186      0.749085695      53.9326204
4.53                  0.74178847      50.0306155      0.669685876     -38.2980282       0.66968616     -38.2981138      0.748065412      53.4004315
4.531                0.740707724      49.9542778      0.670879261     -38.6008845      0.670879549     -38.6009676      0.747042227      52.8700465
4.532                0.739630753      49.8779717       0.67206525     -38.9028072      0.672065542     -38.9028879      0.746016317      52.3414544
4.533                0.738557514       49.801697       0.67324392     -39.2038042      0.673244215     -39.2038826      0.744987852      51.8146445
4.534                0.737487963      49.7254533      0.674415343     -39.5038832      0.674415641     -39.5039593         0.743957       51.289606
4.535                0.736422059      49.6492407      0.675579594     -39.8030519      0.675579895     -39.8031258      0.742923924      50.7663279
4.536                0.735359762      49.5730588      0.676736744     -40.1013179      0.676737048     -40.1013896      0.741888784      50.2447992
4.537                0.734301031      49.4969075      0.677886865     -40.3986885      0.677887172     -40.3987582      0.740851735      49.7250089
4.538                0.733245827      49.4207867      0.679030027     -40.6951713      0.679030338     -40.6952389      0.739812929      49.2069461
4.539                0.732194111      49.3446962      0.680166302     -40.9907736      0.680166615     -40.9908393      0.738772513      48.6905997
4.54                 0.731145846      49.2686359      0.681295757     -41.2855027      0.681296073     -41.2855664      0.737730631      48.1759586
4.541                0.730100993      49.1926055       0.68241846     -41.5793657      0.682418779     -41.5794276      0.736687424      47.6630118
4.542                0.729059515       49.116605       0.68353448     -41.8723697      0.683534802     -41.8724298      0.735643028      47.1517481
4.543                0.728021377      49.0406342      0.684643883     -42.1645219      0.684644207     -42.1645802      0.734597577      46.6421565
4.544                0.726986543       48.964693      0.685746734     -42.4558291       0.68574706     -42.4558858      0.733551199      46.1342259
4.545                0.725954977      48.8887813      0.686843099     -42.7462983      0.686843428     -42.7463533      0.732504021      45.6279451
4.546                0.724926646      48.8128989      0.687933042     -43.0359363      0.687933372     -43.0359898      0.731456166      45.1233031
4.547                0.723901515      48.7370458      0.689016626     -43.3247499      0.689016958     -43.3248018      0.730407754      44.6202888
4.548                0.722879551      48.6612217      0.690093914     -43.6127456      0.690094248     -43.6127961      0.729358899      44.1188912
4.549                0.721860721      48.5854267      0.691164968     -43.8999303      0.691165304     -43.8999792      0.728309715       43.619099
4.55                 0.720844993      48.5096606      0.692229849     -44.1863103      0.692230187     -44.1863579      0.727260312      43.1209014
4.551                0.719832335      48.4339233      0.693288618     -44.4718923      0.693288958     -44.4719384      0.726210796      42.6242872
4.552                0.718822716      48.3582146      0.694341334     -44.7566825      0.694341676     -44.7567274      0.725161271      42.1292454
4.553                0.717816105      48.2825346      0.695388057     -45.0406874        0.6953884     -45.0407309      0.724111838       41.635765
4.554                0.716812472      48.2068832      0.696428845     -45.3239132      0.696429189     -45.3239555      0.723062593      41.1438352
4.555                0.715811787      48.1312602      0.697463755     -45.6063661      0.697464101     -45.6064073      0.722013632      40.6534448
4.556                 0.71481402      48.0556655      0.698492845     -45.8880524      0.698493192     -45.8880924      0.720965047      40.1645831
4.557                0.713819144      47.9800991       0.69951617     -46.1689781      0.699516518     -46.1690169      0.719916926      39.6772391
4.558                0.712827128       47.904561      0.700533787     -46.4491492      0.700534136      -46.449187      0.718869356       39.191402
4.559                0.711837947       47.829051       0.70154575     -46.7285717        0.7015461     -46.7286084      0.717822421       38.707061
4.56                 0.710851571       47.753569      0.702552113     -47.0072515      0.702552464     -47.0072872      0.716776202      38.2242054
4.561                0.709867974      47.6781151       0.70355293     -47.2851944      0.703553282     -47.2852292      0.715730777      37.7428243
4.562                0.708887129      47.6026891      0.704548255     -47.5624063      0.704548606     -47.5624401      0.714686223      37.2629072
4.563                 0.70790901       47.527291      0.705538138     -47.8388929      0.705538491     -47.8389258      0.713642614      36.7844434
4.564                0.706933591      47.4519207      0.706522633     -48.1146598      0.706522986     -48.1146918       0.71260002      36.3074222
4.565                0.705960847      47.3765782       0.70750179     -48.3897127      0.707502143     -48.3897438       0.71155851      35.8318331
4.566                0.704990752      47.3012635      0.708475659      -48.664057      0.708476012     -48.6640874      0.710518151      35.3576657
4.567                0.704023282      47.2259764      0.709444291     -48.9376984      0.709444644      -48.937728      0.709479008      34.8849095
4.568                0.703058413      47.1507169      0.710407734     -49.2106422      0.710408087      -49.210671      0.708441143      34.4135541
4.569                 0.70209612       47.075485      0.711366038     -49.4828939       0.71136639     -49.4829219      0.707404615      33.9435891
4.57                  0.70113638      47.0002807       0.71231925     -49.7544587      0.712319602     -49.7544861      0.706369483      33.4750042
4.571                0.700179169      46.9251038      0.713267417      -50.025342      0.713267769     -50.0253687      0.705335802      33.0077892
4.572                0.699224466      46.8499544      0.714210588     -50.2955489      0.714210939     -50.2955749      0.704303627       32.541934
4.573                0.698272246      46.7748324      0.715148807     -50.5650847      0.715149158     -50.5651101      0.703273009      32.0774283
4.574                0.697322488      46.6997378      0.716082122     -50.8339545      0.716082472     -50.8339792      0.702243998      31.6142622
4.575                0.696375171      46.6246706      0.717010576     -51.1021632      0.717010926     -51.1021874      0.701216642      31.1524256
4.576                0.695430272      46.5496307      0.717934215     -51.3697161      0.717934564     -51.3697397      0.700190989      30.6919086
4.577                 0.69448777      46.4746181      0.718853083     -51.6366179      0.718853431      -51.636641      0.699167081      30.2327012
4.578                0.693547644      46.3996328      0.719767224     -51.9028737      0.719767571     -51.9028962      0.698144963      29.7747937
4.579                0.692609874      46.3246747       0.72067668     -52.1684883      0.720677026     -52.1685103      0.697124675      29.3181763
4.58                 0.691674439      46.2497438      0.721581495     -52.4334665       0.72158184      -52.433488      0.696106256      28.8628393
4.581                0.690741319      46.1748401       0.72248171      -52.697813      0.722482053     -52.6978341      0.695089744       28.408773
4.582                0.689810495      46.0999636      0.723377367     -52.9615327      0.723377709     -52.9615534      0.694075176      27.9559678
4.583                0.688881947      46.0251142      0.724268507     -53.2246302      0.724268847     -53.2246504      0.693062587      27.5044143
4.584                0.687955655       45.950292       0.72515517     -53.4871101      0.725155509     -53.4871299      0.692052009       27.054103
4.585                0.687031601      45.8754969      0.726037397     -53.7489769      0.726037734     -53.7489964      0.691043474      26.6050245
4.586                0.686109766      45.8007289      0.726915227     -54.0102353      0.726915563     -54.0102544      0.690037012      26.1571695
4.587                0.685190131       45.725988        0.7277887     -54.2708897      0.727789034     -54.2709085      0.689032653      25.7105288
4.588                0.684272679      45.6512742      0.728657854     -54.5309446      0.728658186      -54.530963      0.688030424      25.2650931
4.589                0.683357392      45.5765874      0.729522727     -54.7904043      0.729523057     -54.7904224       0.68703035      24.8208533
4.59                 0.682444252      45.5019277      0.730383357     -55.0492733      0.730383685     -55.0492911      0.686032458      24.3778004
4.591                0.681533241       45.427295      0.731239781     -55.3075558      0.731240107     -55.3075732       0.68503677      23.9359254
4.592                0.680624342      45.3526894      0.732092036      -55.565256       0.73209236     -55.5652733       0.68404331      23.4952193
4.593                0.679717539      45.2781107       0.73294016     -55.8223784      0.732940481     -55.8223953      0.683052098      23.0556734
4.594                0.678812815      45.2035591      0.733784186     -56.0789269      0.733784505     -56.0789436      0.682063154      22.6172788
4.595                0.677910153      45.1290346      0.734624152     -56.3349058      0.734624469     -56.3349223      0.681076498      22.1800268
4.596                0.677009537       45.054537      0.735460092     -56.5903192      0.735460406     -56.5903354      0.680092147      21.7439088
4.597                0.676110951      44.9800664      0.736292041     -56.8451711      0.736292353     -56.8451871      0.679110118      21.3089162
4.598                0.675214379      44.9056229      0.737120033     -57.0994655      0.737120343     -57.0994814      0.678130427      20.8750404
4.599                0.674319806      44.8312063      0.737944103     -57.3532065      0.737944409     -57.3532222      0.677153088       20.442273
4.6                  0.673427216      44.7568167      0.738764283      -57.606398      0.738764587     -57.6064135      0.676178116      20.0106056
4.601                0.672536594      44.6824542      0.739580607     -57.8590439      0.739580908     -57.8590592      0.675205523        19.58003
4.602                0.671647926      44.6081186      0.740393108      -58.111148      0.740393406     -58.1111632      0.674235321      19.1505378
4.603                0.670761195      44.5338101      0.741201817     -58.3627143      0.741202112     -58.3627293      0.673267521       18.722121
4.604                0.669876388      44.4595285      0.742006767     -58.6137464      0.742007059     -58.6137613      0.672302134      18.2947713
4.605                0.668993491      44.3852739       0.74280799     -58.8642481      0.742808279     -58.8642629      0.671339167      17.8684807
4.606                0.668112489      44.3110464      0.743605516     -59.1142232      0.743605802     -59.1142378       0.67037863      17.4432413
4.607                0.667233368      44.2368458      0.744399377     -59.3636753      0.744399659     -59.3636899       0.66942053      17.0190451
4.608                0.666356114      44.1626723      0.745189602     -59.6126081      0.745189881     -59.6126226      0.668464875      16.5958843
4.609                0.665480715      44.0885258      0.745976222     -59.8610252      0.745976498     -59.8610396       0.66751167      16.1737512
4.61                 0.664607155      44.0144063      0.746759267     -60.1089302       0.74675954     -60.1089445       0.66656092       15.752638
4.611                0.663735422      43.9403139      0.747538766     -60.3563266      0.747539036     -60.3563408       0.66561263       15.332537
4.612                0.662865503      43.8662485      0.748314749     -60.6032179      0.748315015      -60.603232      0.664666804      14.9134407
4.613                0.661997385      43.7922101      0.749087243     -60.8496076      0.749087505     -60.8496217      0.663723446      14.4953416
4.614                0.661131055      43.7181988      0.749856278     -61.0954991      0.749856536     -61.0955131      0.662782557      14.0782321
4.615                0.660266501      43.6442145      0.750621881     -61.3408958      0.750622136     -61.3409098       0.66184414      13.6621051
4.616                0.659403709      43.5702573       0.75138408     -61.5858012      0.751384332     -61.5858151      0.660908196       13.246953
4.617                0.658542668      43.4963272      0.752142903     -61.8302184      0.752143151     -61.8302324      0.659974726      12.8327687
4.618                0.657683366      43.4224242      0.752898377      -62.074151       0.75289862     -62.0741649       0.65904373       12.419545
4.619                 0.65682579      43.3485483      0.753650527     -62.3176021      0.753650768      -62.317616      0.658115207      12.0072747
4.62                 0.655969929      43.2746995      0.754399382     -62.5605749      0.754399619     -62.5605888      0.657189157      11.5959508
4.621                0.655115771      43.2008778      0.755144967     -62.8030727        0.7551452     -62.8030866      0.656265579      11.1855663
4.622                0.654263305      43.1270832      0.755887308     -63.0450988      0.755887537     -63.0451126       0.65534447      10.7761142
4.623                0.653412518      43.0533158      0.756626431     -63.2866561      0.756626655       -63.28667      0.654425827      10.3675877
4.624                0.652563401      42.9795755       0.75736236     -63.5277479      0.757362581     -63.5277617      0.653509648      9.95997988
4.625                0.651715941      42.9058624      0.758095122     -63.7683772      0.758095338     -63.7683911       0.65259593       9.5532841
4.626                0.650870128      42.8321765      0.758824739     -64.0085471      0.758824952      -64.008561      0.651684669      9.14749364
4.627                 0.65002595      42.7585177      0.759551238     -64.2482607      0.759551446     -64.2482746       0.65077586      8.74260185
4.628                0.649183398      42.6848862      0.760274642     -64.4875208      0.760274846     -64.4875348      0.649869498      8.33860218
4.629                 0.64834246      42.6112819      0.760994975     -64.7263307      0.760995175     -64.7263446       0.64896558      7.93548811
4.63                 0.647503127      42.5377048       0.76171226      -64.964693      0.761712456     -64.9647071      0.648064098       7.5332532
4.631                0.646665387      42.4641549      0.762426521     -65.2026109      0.762426713      -65.202625      0.647165048      7.13189105
4.632                0.645829231      42.3906323      0.763137782     -65.4400872      0.763137969     -65.4401013      0.646268424      6.73139534
4.633                0.644994648       42.317137      0.763846064     -65.6771247      0.763846246     -65.6771388      0.645374218       6.3317598
4.634                0.644161628       42.243669       0.76455139     -65.9137263      0.764551568     -65.9137404      0.644482424      5.93297822
4.635                0.643330163      42.1702282      0.765253783     -66.1498947      0.765253957      -66.149909      0.643593034      5.53504444
4.636                0.642500241      42.0968148      0.765953265     -66.3856329      0.765953434     -66.3856472      0.642706042      5.13795236
4.637                0.641671853      42.0234287      0.766649857     -66.6209435      0.766650022     -66.6209578       0.64182144      4.74169594
4.638                0.640844991      41.9500699      0.767343581     -66.8558293      0.767343741     -66.8558437      0.640939218       4.3462692
4.639                0.640019643      41.8767386      0.768034458      -67.090293      0.768034614     -67.0903074       0.64005937      3.95166621
4.64                 0.639195802      41.8034345       0.76872251     -67.3243372      0.768722661     -67.3243517      0.639181887      3.55788111
4.641                0.638373458      41.7301579      0.769407757     -67.5579647      0.769407904     -67.5579793      0.638306759      3.16490807
4.642                0.637552602      41.6569087      0.770090219      -67.791178      0.770090362     -67.7911927      0.637433978      2.77274133
4.643                0.636733225      41.5836869      0.770769918     -68.0239798      0.770770056     -68.0239945      0.636563534       2.3813752
4.644                0.635915318      41.5104926      0.771446873     -68.2563727      0.771447007     -68.2563875      0.635695417        1.990804
4.645                0.635098872      41.4373257      0.772121105     -68.4883592      0.772121234      -68.488374      0.634829619      1.60102216
4.646                0.634283879      41.3641863      0.772792632     -68.7199418      0.772792756     -68.7199567      0.633966129      1.21202411
4.647                0.633470331      41.2910744      0.773461475     -68.9511231      0.773461595      -68.951138      0.633104936     0.823804379
4.648                0.632658218      41.2179899      0.774127652     -69.1819055      0.774127767     -69.1819206      0.632246031     0.436357511
4.649                0.631847532      41.1449331      0.774791183     -69.4122916      0.774791294     -69.4123067      0.631389403    0.0496781238
4.65                 0.631038266      41.0719037      0.775452087     -69.6422837      0.775452193     -69.6422989      0.630535042     -0.33623912
4.651                 0.63023041      40.9989019      0.776110382     -69.8718843      0.776110483     -69.8718996      0.629682936    -0.721399506
4.652                0.629423958      40.9259277      0.776766087     -70.1010959      0.776766183     -70.1011112      0.628833074     -1.10580827
4.653                  0.6286189      40.8529811       0.77741922     -70.3299206      0.777419311     -70.3299361      0.627985446     -1.48947059
4.654                0.627815229      40.7800621      0.778069798     -70.5583611      0.778069885     -70.5583766      0.627140041     -1.87239161
4.655                0.627012938      40.7071707       0.77871784     -70.7864194      0.778717923      -70.786435      0.626296845     -2.25457642
4.656                0.626212018      40.6343069      0.779363364     -71.0140981      0.779363442     -71.0141138       0.62545585     -2.63603004
4.657                0.625412462      40.5614709      0.780006387     -71.2413993      0.780006459     -71.2414151      0.624617041     -3.01675746
4.658                0.624614263      40.4886625      0.780646925     -71.4683253      0.780646993     -71.4683412      0.623780409     -3.39676363
4.659                0.623817412      40.4158818      0.781284997     -71.6948785      0.781285061     -71.6948944       0.62294594     -3.77605344
4.66                 0.623021903      40.3431288      0.781920619      -71.921061      0.781920678      -71.921077      0.622113624     -4.15463174
4.661                0.622227728      40.2704035      0.782553808      -72.146875      0.782553862      -72.146891      0.621283447     -4.53250331
4.662                0.621434881       40.197706      0.783184581     -72.3723227       0.78318463     -72.3723389      0.620455398     -4.90967292
4.663                0.620643353      40.1250363      0.783812953     -72.5974063      0.783812997     -72.5974226      0.619629466     -5.28614526
4.664                0.619853138      40.0523944      0.784438941      -72.822128       0.78443898     -72.8221443      0.618805636     -5.66192501
4.665                0.619064228      39.9797802      0.785062561     -73.0464898      0.785062595     -73.0465062      0.617983898     -6.03701676
4.666                0.618276618      39.9071939      0.785683828      -73.270494      0.785683858     -73.2705104      0.617164238      -6.4114251
4.667                  0.6174903      39.8346355      0.786302759     -73.4941425      0.786302784      -73.494159      0.616346644     -6.78515455
4.668                0.616705267      39.7621049      0.786919369     -73.7174375       0.78691939     -73.7174541      0.615531104     -7.15820959
4.669                0.615921513      39.6896021      0.787533674      -73.940381      0.787533689     -73.9403977      0.614717606     -7.53059466
4.67                 0.615139031      39.6171273      0.788145687      -74.162975      0.788145698     -74.1629918      0.613906135     -7.90231415
4.671                0.614357814      39.5446804      0.788755425     -74.3852217      0.788755432     -74.3852385      0.613096681     -8.27337242
4.672                0.613577857      39.4722614      0.789362903     -74.6071229      0.789362904     -74.6071398       0.61228923     -8.64377378
4.673                0.612799152      39.3998704      0.789968135     -74.8286807      0.789968131     -74.8286977       0.61148377     -9.01352249
4.674                0.612021693      39.3275073      0.790571135      -75.049897      0.790571127     -75.0499141      0.610680287     -9.38262279
4.675                0.611245475      39.2551722      0.791171918     -75.2707738      0.791171905      -75.270791       0.60987877     -9.75107885
4.676                 0.61047049      39.1828651      0.791770499      -75.491313      0.791770481     -75.4913303      0.609079205     -10.1188948
4.677                0.609696733      39.1105861      0.792366891     -75.7115165      0.792366868     -75.7115339      0.608281579     -10.4860748
4.678                0.608924198      39.0383351      0.792961108     -75.9313863      0.792961081     -75.9314038      0.607485881     -10.8526229
4.679                0.608152878      38.9661121      0.793553164     -76.1509242      0.793553133     -76.1509417      0.606692096     -11.2185431
4.68                 0.607382768      38.8939173      0.794143073     -76.3701321      0.794143037     -76.3701497      0.605900213     -11.5838394
4.681                0.606613861      38.8217505      0.794730849     -76.5890118      0.794730808     -76.5890295      0.605110218     -11.9485157
4.682                0.605846153      38.7496118      0.795316504     -76.8075652      0.795316458     -76.8075829      0.604322098      -12.312576
4.683                0.605079637      38.6775013      0.795900052      -77.025794      0.795900002     -77.0258118      0.603535842     -12.6760241
4.684                0.604314307      38.6054189      0.796481506     -77.2437001      0.796481452      -77.243718      0.602751436     -13.0388638
4.685                0.603550158      38.5333647       0.79706088     -77.4612853       0.79706082     -77.4613033      0.601968867      -13.401099
4.686                0.602787184      38.4613387      0.797638185     -77.6785514      0.797638121     -77.6785694      0.601188123     -13.7627334
4.687                 0.60202538      38.3893409      0.798213435        -77.8955      0.798213366     -77.8955181      0.600409191     -14.1237708
4.688                0.601264741      38.3173713      0.798786642      -78.112133      0.798786569     -78.1121511      0.599632059     -14.4842148
4.689                 0.60050526        38.24543      0.799357819      -78.328452      0.799357741     -78.3284702      0.598856713      -14.844069
4.69                 0.599746932      38.1735169      0.799926978     -78.5444588      0.799926896      -78.544477      0.598083141     -15.2033372
4.691                0.598989753      38.1016321      0.800494132      -78.760155      0.800494045     -78.7601734       0.59731133     -15.5620228
4.692                0.598233716      38.0297755      0.801059291     -78.9755425        0.8010592     -78.9755608      0.596541269     -15.9201294
4.693                0.597478817      37.9579473       0.80162247     -79.1906227      0.801622373     -79.1906411      0.595772944     -16.2776605
4.694                0.596725051      37.8861475      0.802183678     -79.4053974      0.802183577     -79.4054158      0.595006342     -16.6346197
4.695                0.595972412       37.814376      0.802742928     -79.6198681      0.802742823     -79.6198867      0.594241453     -16.9910103