! TOUCHSTONE file generated by CST MICROWAVE STUDIO
! Date and time: Wed Jan 22 20:11:41 2025
! Project name: NUEVA_TRANSICION_CORTO.cst
! Parameters = {DespTor=4.318; H=17; Hcono=2.59394; Hstep1=13.4144; Hstep2=6.31893; Hstep3=0; Htuerca=0.1; L=55; Lback=11; Ldielectrico=9.525; Lstep1=12.9914; Lstep2=10.8318; Lstep3=9.99957; Ltor=4; Nsegments=0; Ragujero=1.4615; Rcono1=4.39874; Rcono2=2.78582; Rext=2.055; Rint=0.635; Rtor=1.275; Rtuerca=2.451; Target=-30; W=34; lopt1=0.632257; lopt2=6.83182; lopt3=5.99957; rrcono2=2.78582; thickness=2; topthickness=3}
! Header version: 2018
! Port assignment regex: !\s*Touchstone port\s*([0-9]+)\s*=\s*(CST MWS port|CST DS port)\s*([0-9]+|Zmin|Zmax)\s*\(\"(.*)\"\)(\s*mode\s*([0-9]+))?.*
! Touchstone port assignment:
! Touchstone port 1 = CST MWS port 1 ("")
! Touchstone port 2 = CST MWS port 2 ("")
# GHz Y MA R 1
4                   0.0249475577      90.0000572   0.000847171951      89.9999983   0.000847062576      89.9945605    0.00150346534     -90.0000028
4.0016              0.0250140637      90.0000936   0.000849883391       89.998604   0.000849778433      89.9927887     0.0015011875     -89.9995593
4.0032              0.0250808166      90.0001291   0.000852608816      89.9972691    0.00085250814      89.9910766    0.00149890912     -89.9991247
4.0048              0.0251478181      90.0001637    0.00085534834      89.9959929   0.000855251809      89.9894239    0.00149663019     -89.9986989
4.0064              0.0252150698      90.0001974   0.000858102074      89.9947747    0.00085800955      89.9878299    0.00149435067     -89.9982822
4.008               0.0252825732      90.0002301   0.000860870133      89.9936138   0.000860781476      89.9862941    0.00149207057     -89.9978746
4.0096              0.0253503299      90.0002619    0.00086365263      89.9925095   0.000863567703      89.9848159    0.00148978987     -89.9974762
4.0112              0.0254183415      90.0002928   0.000866449681      89.9914609   0.000866368343      89.9833947    0.00148750855     -89.9970873
4.0128              0.0254866098      90.0003227   0.000869261402      89.9904673   0.000869183513        89.98203     0.0014852266     -89.9967078
4.0144              0.0255551363      90.0003517   0.000872087912      89.9895279    0.00087201333      89.9807209    0.00148294401     -89.9963378
4.016               0.0256239228      90.0003798   0.000874929326       89.988642    0.00087485791       89.979467    0.00148066076     -89.9959776
4.0176              0.0256929708      90.0004069   0.000877785766      89.9878086   0.000877717372      89.9782676    0.00147837683     -89.9956271
4.0192              0.0257622822      90.0004331   0.000880657351       89.987027   0.000880591837      89.9771219    0.00147609222     -89.9952865
4.0208              0.0258318585      90.0004583   0.000883544201      89.9862962   0.000883481423      89.9760293     0.0014738069     -89.9949559
4.0224              0.0259017017      90.0004826   0.000886446439      89.9856155   0.000886386253      89.9749891    0.00147152087     -89.9946354
4.024               0.0259718133       90.000506   0.000889364188      89.9849839    0.00088930645      89.9740005     0.0014692341     -89.9943249
4.0256              0.0260421952      90.0005284   0.000892297571      89.9844006   0.000892242135      89.9730629    0.00146694659     -89.9940247
4.0272              0.0261128491      90.0005499   0.000895246712      89.9838646   0.000895193434      89.9721754    0.00146465831     -89.9937349
4.0288              0.0261837768      90.0005704   0.000898211739       89.983375   0.000898160472      89.9713373    0.00146236925     -89.9934554
4.0304              0.0262549802        90.00059   0.000901192777      89.9829309   0.000901143376      89.9705478     0.0014600794     -89.9931863
4.032                0.026326461      90.0006086   0.000904189953      89.9825312   0.000904142273      89.9698061    0.00145778874     -89.9929278
4.0336              0.0263982212      90.0006263   0.000907203397      89.9821751    0.00090715729      89.9691115    0.00145549725     -89.9926799
4.0352              0.0264702625      90.0006431   0.000910233238      89.9818616   0.000910188558       89.968463    0.00145320492     -89.9924426
4.0368              0.0265425869       90.000659   0.000913279606      89.9815896   0.000913236207      89.9678599    0.00145091173      -89.992216
4.0384              0.0266151962      90.0006739   0.000916342633      89.9813582   0.000916300368      89.9673013    0.00144861767     -89.9920002
4.04                0.0266880925      90.0006879   0.000919422451      89.9811664   0.000919381174      89.9667863    0.00144632272     -89.9917952
4.0416              0.0267612775       90.000701   0.000922519194       89.981013   0.000922478759      89.9663141    0.00144402686      -89.991601
4.0432              0.0268347533      90.0007133   0.000925632996      89.9808971   0.000925593256      89.9658837    0.00144173008     -89.9914177
4.0448              0.0269085218      90.0007246   0.000928763992      89.9808176   0.000928724802      89.9654943    0.00143943235     -89.9912453
4.0464               0.026982585       90.000735   0.000931912319      89.9807735   0.000931873532       89.965145    0.00143713368     -89.9910838
4.048                0.027056945      90.0007445   0.000935078114      89.9807636   0.000935039586      89.9648348    0.00143483402     -89.9909333
4.0496              0.0271316037      90.0007532   0.000938261516      89.9807869   0.000938223101      89.9645628    0.00143253338     -89.9907938
4.0512              0.0272065632       90.000761   0.000941462664      89.9808423   0.000941424217      89.9643281    0.00143023173     -89.9906652
4.0528              0.0272818256      90.0007679   0.000944681698      89.9809286   0.000944643075      89.9641296    0.00142792906     -89.9905476
4.0544               0.027357393       90.000774    0.00094791876      89.9810448   0.000947879818      89.9639665    0.00142562534      -89.990441
4.056               0.0274332675      90.0007793   0.000951173991      89.9811898   0.000951134587      89.9638377    0.00142332057     -89.9903453
4.0576              0.0275094512      90.0007837   0.000954447537      89.9813624   0.000954407528      89.9637423    0.00142101471     -89.9902607
4.0592              0.0275859463      90.0007873    0.00095773954      89.9815614   0.000957698786      89.9636793    0.00141870777     -89.9901869
4.0608              0.0276627549      90.0007902   0.000961050147      89.9817858   0.000961008507      89.9636476    0.00141639971     -89.9901241
4.0624              0.0277398792      90.0007922   0.000964379504      89.9820344   0.000964336838      89.9636464    0.00141409053     -89.9900721
4.064               0.0278173216      90.0007935   0.000967727759      89.9823059   0.000967683928      89.9636744    0.00141178019     -89.9900309
4.0656              0.0278950841       90.000794    0.00097109506      89.9825994   0.000971049926      89.9637308    0.00140946869     -89.9900005
4.0672              0.0279731691      90.0007938   0.000974481557      89.9829135   0.000974434984      89.9638144    0.00140715601     -89.9899809
4.0688              0.0280515789      90.0007929   0.000977887401      89.9832472   0.000977839254      89.9639243    0.00140484213     -89.9899719
4.0704              0.0281303157      90.0007913   0.000981312744      89.9835992   0.000981262887      89.9640594    0.00140252703     -89.9899735
4.072               0.0282093819      90.0007889   0.000984757738      89.9839683    0.00098470604      89.9642187    0.00140021069     -89.9899856
4.0736                0.02828878       90.000786   0.000988222537      89.9843535   0.000988168866       89.964401     0.0013978931     -89.9900082
4.0752              0.0283685121      90.0007823   0.000991707296      89.9847535   0.000991651524      89.9646055    0.00139557423      -89.990041
4.0768              0.0284485809      90.0007781   0.000995212173      89.9851671   0.000995154169      89.9648309    0.00139325407     -89.9900841
4.0784              0.0285289886      90.0007732   0.000998737322      89.9855932   0.000998676962      89.9650762     0.0013909326     -89.9901373
4.08                0.0286097378      90.0007677     0.0010022829      89.9860305    0.00100222006      89.9653404    0.00138860981     -89.9902006
4.0816               0.028690831      90.0007617    0.00100584908      89.9864779    0.00100578363      89.9656224    0.00138628566     -89.9902736
4.0832              0.0287722706      90.0007551      0.001009436      89.9869343    0.00100936783      89.9659211    0.00138396015     -89.9903565
4.0848              0.0288540592      90.0007481    0.00101304384      89.9873984    0.00101297283      89.9662355    0.00138163326     -89.9904489
4.0864              0.0289361994      90.0007405    0.00101667276      89.9878691    0.00101659878      89.9665645    0.00137930496     -89.9905508
4.088               0.0290186938      90.0007324    0.00102032291      89.9883452    0.00102024586      89.9669071    0.00137697524     -89.9906619
4.0896               0.029101545      90.0007239    0.00102399448      89.9888255    0.00102391424      89.9672622    0.00137464409     -89.9907822
4.0912              0.0291847557       90.000715    0.00102768761       89.989309    0.00102760407      89.9676287    0.00137231147     -89.9909114
4.0928              0.0292683284      90.0007057    0.00103140248      89.9897944    0.00103131554      89.9680056    0.00136997738     -89.9910493
4.0944              0.0293522661       90.000696    0.00103513926      89.9902807    0.00103504881      89.9683918    0.00136764179     -89.9911958
4.096               0.0294365713       90.000686    0.00103889812      89.9907667    0.00103880406      89.9687863    0.00136530469     -89.9913506
4.0976              0.0295212469      90.0006757    0.00104267923      89.9912512    0.00104258145      89.9691881    0.00136296605     -89.9915136
4.0992              0.0296062956      90.0006651    0.00104648275      89.9917333    0.00104638118      89.9695961    0.00136062587     -89.9916844
4.1008              0.0296917204      90.0006542    0.00105030888      89.9922117     0.0010502034      89.9700094    0.00135828411     -89.9918629
4.1024               0.029777524      90.0006432    0.00105415777      89.9926855     0.0010540483      89.9704268    0.00135594076     -89.9920488
4.104               0.0298637094      90.0006319     0.0010580296      89.9931535    0.00105791606      89.9708475    0.00135359581     -89.9922419
4.1056              0.0299502795      90.0006205    0.00106192456      89.9936147    0.00106180686      89.9712704    0.00135124923     -89.9924418
4.1072              0.0300372373      90.0006089    0.00106584282      89.9940681    0.00106572088      89.9716946    0.00134890101     -89.9926484
4.1088              0.0301245857      90.0005973    0.00106978456      89.9945127     0.0010696583      89.9721191    0.00134655113     -89.9928613
4.1104              0.0302123278      90.0005856    0.00107374996      89.9949474    0.00107361931      89.9725429    0.00134419957     -89.9930803
4.112               0.0303004668      90.0005738    0.00107773921      89.9953714     0.0010776041      89.9729651     0.0013418463      -89.993305
4.1136              0.0303890056      90.0005621    0.00108175249      89.9957835    0.00108161285      89.9733848    0.00133949132     -89.9935351
4.1152              0.0304779474      90.0005504    0.00108578997       89.996183    0.00108564575      89.9738011    0.00133713461     -89.9937703
4.1168              0.0305672954      90.0005388    0.00108985186       89.996569    0.00108970299      89.9742132    0.00133477614     -89.9940103
4.1184              0.0306570528      90.0005273    0.00109393834      89.9969404    0.00109378477      89.9746201    0.00133241591     -89.9942547
4.12                0.0307472229      90.0005159    0.00109804959      89.9972965    0.00109789128       89.975021    0.00133005388     -89.9945032
4.1216               0.030837809      90.0005047    0.00110218582      89.9976364    0.00110202271      89.9754152    0.00132769005     -89.9947554
4.1232              0.0309288144      90.0004938     0.0011063472      89.9979594    0.00110617927      89.9758017     0.0013253244     -89.9950109
4.1248              0.0310202424       90.000483    0.00111053394      89.9982647    0.00111036114      89.9761799     0.0013229569     -89.9952694
4.1264              0.0311120965      90.0004726    0.00111474624      89.9985514    0.00111456853       89.976549    0.00132058755     -89.9955305
4.128               0.0312043801      90.0004625    0.00111898428       89.998819    0.00111880165      89.9769082    0.00131821632     -89.9957938
4.1296              0.0312970967      90.0004527    0.00112324826      89.9990668    0.00112306069      89.9772569     0.0013158432     -89.9960588
4.1312              0.0313902499      90.0004433     0.0011275384      89.9992941    0.00112734586      89.9775945    0.00131346817     -89.9963253
4.1328              0.0314838432      90.0004343    0.00113185488      89.9995002    0.00113165737      89.9779202    0.00131109121     -89.9965926
4.1344              0.0315778802      90.0004259    0.00113619792      89.9996847    0.00113599543      89.9782335    0.00130871232     -89.9968605
4.136               0.0316723647      90.0004178    0.00114056772       89.999847    0.00114036025      89.9785338    0.00130633146     -89.9971285
4.1376              0.0317673003      90.0004104    0.00114496448      89.9999867    0.00114475204      89.9788205    0.00130394863     -89.9973961
4.1392              0.0318626908      90.0004035    0.00114938842      90.0001032    0.00114917102      89.9790932    0.00130156381     -89.9976628
4.1408              0.0319585399      90.0003971    0.00115383975      90.0001962     0.0011536174      89.9793514    0.00129917699     -89.9979284
4.1424              0.0320548516      90.0003915    0.00115831868      90.0002653     0.0011580914      89.9795947    0.00129678815     -89.9981922
4.144               0.0321516297      90.0003864    0.00116282542      90.0003102    0.00116259324      89.9798226    0.00129439727     -89.9984538
4.1456              0.0322488782      90.0003821     0.0011673602      90.0003307    0.00116712315      89.9800348    0.00129200434     -89.9987127
4.1472              0.0323466011      90.0003785    0.00117192322      90.0003264    0.00117168136       89.980231    0.00128960934     -89.9989685
4.1488              0.0324448024      90.0003756    0.00117651473      90.0002974    0.00117626808      89.9804109    0.00128721226     -89.9992207
4.1504              0.0325434862      90.0003736    0.00118113492      90.0002433    0.00118088355      89.9805744    0.00128481309     -89.9994688
4.152               0.0326426566      90.0003723    0.00118578404      90.0001642      0.001185528      89.9807211    0.00128241182     -89.9997124
4.1536              0.0327423169      90.0002761    0.00119046319       89.999991    0.00119020254      89.9807818    0.00128000837     -89.9999498
4.1552              0.0328424723      90.0001805    0.00119517172      89.9997922    0.00119490653      89.9808252    0.00127760279     -90.0001816
4.1568              0.0329431271      90.0000901    0.00119990983      89.9995715    0.00119964019      89.9808545    0.00127519507     -90.0004075
4.1584              0.0330442857      90.0000051    0.00120467775       89.999329    0.00120440374      89.9808698    0.00127278518     -90.0006268
4.16                0.0331459525      89.9999256    0.00120947572       89.999065    0.00120919743      89.9808713    0.00127037313     -90.0008392
4.1616               0.033248132      89.9998518    0.00121430398        89.99878     0.0012140215      89.9808592    0.00126795889     -90.0010441
4.1632              0.0333508287      89.9997839    0.00121916277      89.9984744    0.00121887621      89.9808337    0.00126554245     -90.0012411
4.1648              0.0334540471      89.9997221    0.00122405233      89.9981486     0.0012237618      89.9807952    0.00126312381     -90.0014296
4.1664              0.0335577919      89.9996663    0.00122897291      89.9978033    0.00122867854       89.980744    0.00126070296     -90.0016094
4.168               0.0336620679      89.9996168    0.00123392477      89.9974391    0.00123362667      89.9806806    0.00125827987     -90.0017798
4.1696              0.0337668798      89.9995737    0.00123890815      89.9970565    0.00123860646      89.9806053    0.00125585455     -90.0019405
4.1712              0.0338722323       89.999537    0.00124392332      89.9966564    0.00124361817      89.9805187    0.00125342698      -90.002091
4.1728              0.0339781304      89.9995069    0.00124897053      89.9962395    0.00124866207      89.9804213    0.00125099715     -90.0022308
4.1744               0.034084579      89.9994834    0.00125405005      89.9958067    0.00125373843      89.9803138    0.00124856506     -90.0023597
4.176               0.0341915832      89.9994666    0.00125916214      89.9953587    0.00125884753      89.9801967    0.00124613068     -90.0024771
4.1776              0.0342991479      89.9994565    0.00126430708      89.9948967    0.00126398965      89.9800707    0.00124369402     -90.0025827
4.1792              0.0344072784      89.9994532    0.00126948514      89.9944216    0.00126916506      89.9799367    0.00124125507     -90.0026761
4.1808              0.0345159797      89.9994566    0.00127469661      89.9939345    0.00127437405      89.9797953    0.00123881382      -90.002757
4.1824              0.0346252573      89.9994669    0.00127994176      89.9934365    0.00127961692      89.9796475    0.00123637025     -90.0028251
4.184               0.0347351163      89.9994838    0.00128522088      89.9929288    0.00128489395       89.979494    0.00123392437       -90.00288
4.1856              0.0348455622      89.9995075    0.00129053427      89.9924126    0.00129020545      89.9793359    0.00123147616     -90.0029215
4.1872              0.0349566005      89.9995379    0.00129588222      89.9918892    0.00129555172      89.9791741    0.00122902561     -90.0029493
4.1888              0.0350682366      89.9995749    0.00130126502        89.99136    0.00130093307      89.9790096    0.00122657273     -90.0029632
4.1904              0.0351804762      89.9996183      0.001306683      89.9908264     0.0013063498      89.9788435     0.0012241175     -90.0029631
4.192                0.035293325      89.9996682    0.00131213645      89.9902898    0.00131180225      89.9786769    0.00122165992     -90.0029486
4.1936              0.0354067886      89.9997244     0.0013176257      89.9897517    0.00131729072      89.9785109    0.00121919998     -90.0029198
4.1952              0.0355208728      89.9997866    0.00132315106      89.9892137    0.00132281555      89.9783467    0.00121673767     -90.0028766
4.1968              0.0356355837      89.9998548    0.00132871286      89.9886773    0.00132837707      89.9781856    0.00121427299     -90.0028188
4.1984               0.035750927      89.9999287    0.00133431144      89.9881443    0.00133397561      89.9780288    0.00121180594     -90.0027465
4.2                 0.0358669088      90.0000082    0.00133994712      89.9876163    0.00133961153      89.9778776     0.0012093365     -90.0026597
4.2016              0.0359835352      90.0000929    0.00134562026      89.9870951    0.00134528517      89.9777333    0.00120686467     -90.0025585
4.2032              0.0361008124      90.0001827    0.00135133121      89.9865823    0.00135099689      89.9775973    0.00120439045     -90.0024431
4.2048              0.0362187465      90.0002772    0.00135708032      89.9860799    0.00135674705       89.977471    0.00120191382     -90.0023136
4.2064               0.036337344      90.0003761    0.00136286796      89.9855896    0.00136253601      89.9773557    0.00119943479     -90.0021703
4.208               0.0364566111       90.000479    0.00136869449      89.9851134    0.00136836416      89.9772529    0.00119695335     -90.0020134
4.2096              0.0365765544      90.0005857    0.00137456029       89.984653    0.00137423187      89.9771641    0.00119446949     -90.0018434
4.2112              0.0366971803      90.0006956    0.00138046575      89.9842104    0.00138013953      89.9770907     0.0011919832     -90.0016607
4.2128              0.0368184955      90.0008085    0.00138641125      89.9837876    0.00138608754      89.9770341    0.00118949448     -90.0014657
4.2144              0.0369405066      90.0009238     0.0013923972      89.9833865     0.0013920763      89.9769958    0.00118700333     -90.0012591
4.216               0.0370632204       90.001041    0.00139842401       89.983009    0.00139810622      89.9769774    0.00118450972     -90.0010414
4.2176              0.0371866424      90.0010666    0.00140449302      89.9825852    0.00140417865      89.9769083    0.00118201361     -90.0008117
4.2192              0.0373107808      90.0010914    0.00141060374      89.9821874    0.00141029311      89.9768605    0.00117951503     -90.0005723
4.2208              0.0374356424      90.0011154     0.0014167566      89.9818179    0.00141645002      89.9768356    0.00117701398     -90.0003242
4.2224              0.0375612345      90.0011383    0.00142295203      89.9814789    0.00142264982      89.9768355    0.00117451045     -90.0000684
4.224               0.0376875641      90.0011601    0.00142919049      89.9811727    0.00142889296      89.9768619    0.00117200442     -89.9998058
4.2256              0.0378146384      90.0011806    0.00143547242      89.9809016     0.0014351799      89.9769165    0.00116949589     -89.9995376
4.2272              0.0379424647      90.0011995    0.00144179829      89.9806677    0.00144151108      89.9770011    0.00116698484     -89.9992651
4.2288              0.0380710504      90.0012168    0.00144816857      89.9804733      0.001447887      89.9771174    0.00116447125     -89.9989896
4.2304              0.0382004028      90.0012322    0.00145458374      89.9803206    0.00145430812       89.977267    0.00116195513     -89.9987124
4.232               0.0383305295      90.0012456    0.00146104429      89.9802116    0.00146077494      89.9774515    0.00115943643     -89.9984352
4.2336              0.0384614381      90.0012567    0.00146755073      89.9801485    0.00146728796      89.9776726    0.00115691516     -89.9981596
4.2352              0.0385931361      90.0012655    0.00147410356      89.9801333    0.00147384768      89.9779317    0.00115439129     -89.9978873
4.2368              0.0387256313      90.0012716    0.00148070332      89.9801679    0.00148045463      89.9782302     0.0011518648       -89.99762
4.2384              0.0388589315      90.0012749    0.00148735052      89.9802542    0.00148710933      89.9785695    0.00114933566     -89.9973599
4.24                0.0389930445      90.0012752    0.00149404573       89.980394    0.00149381232       89.978951    0.00114680385     -89.9971089
4.2416              0.0391279782      90.0012722    0.00150078948       89.980589    0.00150056415      89.9793757    0.00114426935     -89.9968691
4.2432              0.0392637407      90.0012658    0.00150758235      89.9808406    0.00150736538      89.9798448    0.00114173212     -89.9966429
4.2448                0.03940034      90.0012558    0.00151442492      89.9811505    0.00151421658      89.9803592    0.00113919212     -89.9964326
4.2464              0.0395377843      90.0012418    0.00152131776      89.9815197    0.00152111832      89.9809196    0.00113664933     -89.9962407
4.248               0.0396760816      90.0012238     0.0015282615      89.9819495    0.00152807121      89.9815268    0.00113410371     -89.9960698
4.2496              0.0398152403      90.0012016    0.00153525672      89.9824408    0.00153507583      89.9821814    0.00113155521     -89.9959225
4.2512              0.0399552688      90.0011748    0.00154230407      89.9829945     0.0015421328      89.9828835    0.00112900378     -89.9958016
4.2528              0.0400961753      90.0011433    0.00154940418       89.983611    0.00154924275      89.9836334    0.00112644939     -89.9957101
4.2544              0.0402379684       90.001107    0.00155655768      89.9842908    0.00155640631      89.9844311    0.00112389197     -89.9956508
4.256               0.0403806565      90.0010655    0.00156376525      89.9850339    0.00156362411      89.9852762    0.00112133146     -89.9956268
4.2576              0.0405242483      90.0010188    0.00157102756      89.9858403    0.00157089683      89.9861684    0.00111876782     -89.9956412
4.2592              0.0406687523      90.0009667    0.00157834528      89.9867096    0.00157822512      89.9871069    0.00111620096     -89.9956972
4.2608              0.0408141773       90.000909    0.00158571912      89.9876411    0.00158560966      89.9880907    0.00111363083     -89.9957981
4.2624              0.0409605321      90.0008455    0.00159314978      89.9886339    0.00159305114      89.9891186    0.00111105734     -89.9959471
4.264               0.0411078253      90.0007761    0.00160063798      89.9896867    0.00160055025      89.9901891    0.00110848041     -89.9961475
4.2656              0.0412560661      90.0007007    0.00160818445      89.9907979    0.00160810771      89.9913003    0.00110589995     -89.9964028
4.2672              0.0414052631      90.0006193    0.00161578992      89.9919656    0.00161572422      89.9924501    0.00110331588     -89.9967162
4.2688              0.0415554256      90.0005316    0.00162345516      89.9931873    0.00162340051      89.9936362    0.00110072809      -89.997091
4.2704              0.0417065625      90.0004377    0.00163118092      89.9944606    0.00163113732      89.9948556    0.00109813647     -89.9975307
4.272               0.0418586829      90.0003376    0.00163896797      89.9957821     0.0016389354      89.9961052    0.00109554093     -89.9980383
4.2736              0.0420117961      90.0002313    0.00164681709      89.9971486    0.00164679549      89.9973816    0.00109294133      -89.998617
4.2752              0.0421659114      90.0001187    0.00165472908      89.9985559    0.00165471835      89.9986807    0.00109033755       -89.99927
4.2768              0.0423210379      90.0000001    0.00166270472      89.9999998    0.00166270474      89.9999985    0.00108772946             -90
4.2784                0.04247718       89.999629    0.00167074749      90.0012737    0.00167075811      90.0011283    0.00108511675     -90.0008021
4.28                0.0426343518       89.999232    0.00167885576       90.002557    0.00167887679        90.00225    0.00108249942     -90.0016857
4.2816              0.0427925628      89.9988108    0.00168703034       90.003845    0.00168706155      90.0033591    0.00107987732     -90.0026531
4.2832              0.0429518227      89.9983655    0.00169527203      90.0051316    0.00169531317      90.0044496    0.00107725029     -90.0037061
4.2848              0.0431121413       89.997897    0.00170358167      90.0064101    0.00170363244      90.0055156    0.00107461816     -90.0048465
4.2864              0.0432735284      89.9974058    0.00171196007      90.0076737    0.00171202014      90.0065505    0.00107198076     -90.0060754
4.288               0.0434359939       89.996893    0.00172040806       90.008915    0.00172047704      90.0075477    0.00106933789     -90.0073936
4.2896               0.043599548      89.9963596    0.00172892646      90.0101263    0.00172900394         90.0085    0.00106668937     -90.0088014
4.2912              0.0437642008      89.9958071    0.00173751607      90.0112998     0.0017376016      90.0094003      0.001064035     -90.0102987
4.2928              0.0439299627       89.995237    0.00174617771      90.0124269     0.0017462708       90.010241    0.00106137458     -90.0118844
4.2944              0.0440968443      89.9946511    0.00175491219      90.0134992    0.00175501229      90.0110145    0.00105870789      -90.013557
4.296               0.0442648563      89.9940516    0.00176372029      90.0145077    0.00176382682       90.011713    0.00105603472     -90.0153142
4.2976              0.0444340096      89.9934408    0.00177260279      90.0154435    0.00177271514      90.0123283    0.00105335485     -90.0171529
4.2992              0.0446043154      89.9928212    0.00178156046      90.0162972    0.00178167796      90.0128526    0.00105066806     -90.0190689
4.3008               0.044775785      89.9921958    0.00179059406      90.0170595    0.00179071601      90.0132779    0.00104797411     -90.0210572
4.3024              0.0449484303      89.9915677    0.00179970431       90.017721    0.00179982998      90.0135961    0.00104527279     -90.0231117
4.304                0.045122263      89.9909405    0.00180889193      90.0182724    0.00180902053      90.0137994    0.00104256387      -90.025225
4.3056              0.0452972957       89.990318     0.0018181576      90.0187045    0.00181828832      90.0138802    0.00103984712     -90.0273886
4.3072              0.0454735409      89.9897042    0.00182750201       90.019008    0.00182763399      90.0138313    0.00103712232     -90.0295925
4.3088              0.0456510119      89.9891035    0.00183692578      90.0191744    0.00183705814      90.0136457    0.00103438925     -90.0318255
4.3104              0.0458297222      89.9885208    0.00184642952      90.0191953    0.00184656136      90.0133171    0.00103164771     -90.0340747
4.312               0.0460096859      89.9879609    0.00185601381      90.0190629    0.00185614419      90.0128397     0.0010288975     -90.0363256