! TOUCHSTONE file generated by CST MICROWAVE STUDIO
! Date and time: Wed Jan 22 20:12:05 2025
! Project name: NUEVA_TRANSICION_CORTO.cst
! Parameters = {DespTor=4.318; H=17; Hcono=2.59394; Hstep1=13.4144; Hstep2=6.31893; Hstep3=0; Htuerca=0.1; L=55; Lback=11; Ldielectrico=9.525; Lstep1=12.9914; Lstep2=10.8318; Lstep3=9.99957; Ltor=4; Nsegments=0; Ragujero=1.4615; Rcono1=4.39874; Rcono2=2.78582; Rext=2.055; Rint=0.635; Rtor=1.275; Rtuerca=2.451; Target=-30; W=34; lopt1=0.632257; lopt2=6.83182; lopt3=5.99957; rrcono2=2.78582; thickness=2; topthickness=3}
! Header version: 2018
! Port assignment regex: !\s*Touchstone port\s*([0-9]+)\s*=\s*(CST MWS port|CST DS port)\s*([0-9]+|Zmin|Zmax)\s*\(\"(.*)\"\)(\s*mode\s*([0-9]+))?.*
! Touchstone port assignment:
! Touchstone port 1 = CST MWS port 1 ("")
! Touchstone port 2 = CST MWS port 2 ("")
# GHz Y DB R 1
4                    -32.0594393      90.0000572      -61.4405686      89.9999983      -61.4416901      89.9945605      -56.4581316     -90.0000028
4.0016                -32.036315      90.0000936      -61.4128132       89.998604      -61.4138859      89.9927887      -56.4713012     -89.9995593
4.0032               -32.0131665      90.0001291      -61.3850036      89.9972691      -61.3860293      89.9910766      -56.4844939     -89.9991247
4.0048               -31.9899938      90.0001637      -61.3571397      89.9959929        -61.35812      89.9894239        -56.49771     -89.9986989
4.0064               -31.9667965      90.0001974       -61.329221      89.9947747      -61.3301576      89.9878299      -56.5109495     -89.9982822
4.008                -31.9435745      90.0002301      -61.3012472      89.9936138      -61.3021417      89.9862941      -56.5242127     -89.9978746
4.0096               -31.9203277      90.0002619       -61.273218      89.9925095      -61.2740722      89.9848159      -56.5374997     -89.9974762
4.0112               -31.8970558      90.0002928      -61.2451331      89.9914609      -61.2459485      89.9833947      -56.5508106     -89.9970873
4.0128               -31.8737586      90.0003227      -61.2169921      89.9904673      -61.2177704        89.98203      -56.5641456     -89.9967078
4.0144                -31.850436      90.0003517      -61.1887947      89.9895279      -61.1895375      89.9807209      -56.5775049     -89.9963378
4.016                -31.8270877      90.0003798      -61.1605405       89.988642      -61.1612495       89.979467      -56.5908887     -89.9959776
4.0176               -31.8037135      90.0004069      -61.1322293      89.9878086      -61.1329061      89.9782676       -56.604297     -89.9956271
4.0192               -31.7803133      90.0004331      -61.1038607       89.987027      -61.1045069      89.9771219      -56.6177302     -89.9952865
4.0208               -31.7568869      90.0004583      -61.0754344      89.9862962      -61.0760516      89.9760293      -56.6311883     -89.9949559
4.0224               -31.7334341      90.0004826        -61.04695      89.9856155      -61.0475398      89.9749891      -56.6446715     -89.9946354
4.024                -31.7099546       90.000506      -61.0184072      89.9849839      -61.0189712      89.9740005        -56.65818     -89.9943249
4.0256               -31.6864482      90.0005284      -60.9898058      89.9844006      -60.9903454      89.9730629       -56.671714     -89.9940247
4.0272               -31.6629148      90.0005499      -60.9611453      89.9838646      -60.9616622      89.9721754      -56.6852736     -89.9937349
4.0288               -31.6393542      90.0005704      -60.9324255       89.983375      -60.9329212      89.9713373      -56.6988591     -89.9934554
4.0304               -31.6157661        90.00059       -60.903646      89.9829309      -60.9041221      89.9705478      -56.7124705     -89.9931863
4.032                -31.5921504      90.0006086      -60.8748065      89.9825312      -60.8752645      89.9698061      -56.7261082     -89.9929278
4.0336               -31.5685067      90.0006263      -60.8459066      89.9821751      -60.8463481      89.9691115      -56.7397722     -89.9926799
4.0352                -31.544835      90.0006431      -60.8169462      89.9818616      -60.8173726       89.968463      -56.7534628     -89.9924426
4.0368                -31.521135       90.000659      -60.7879248      89.9815896      -60.7883376      89.9678599      -56.7671802      -89.992216
4.0384               -31.4974065      90.0006739      -60.7588421      89.9813582      -60.7592428      89.9673013      -56.7809244     -89.9920002
4.04                 -31.4736493      90.0006879      -60.7296979      89.9811664      -60.7300879      89.9667863      -56.7946958     -89.9917952
4.0416               -31.4498632       90.000701      -60.7004918       89.981013      -60.7008725      89.9663141      -56.8084946      -89.991601
4.0432               -31.4260479      90.0007133      -60.6712235      89.9808971      -60.6715964      89.9658837      -56.8223208     -89.9914177
4.0448               -31.4022032      90.0007246      -60.6418926      89.9808176      -60.6422591      89.9654943      -56.8361748     -89.9912453
4.0464               -31.3783289       90.000735      -60.6124989      89.9807735      -60.6128605       89.965145      -56.8500567     -89.9910838
4.048                -31.3544248      90.0007445      -60.5830422      89.9807636      -60.5834001      89.9648348      -56.8639667     -89.9909333
4.0496               -31.3304907      90.0007532      -60.5535219      89.9807869      -60.5538776      89.9645628       -56.877905     -89.9907938
4.0512               -31.3065263       90.000761       -60.523938      89.9808423      -60.5242927      89.9643281      -56.8918718     -89.9906652
4.0528               -31.2825314      90.0007679        -60.49429      89.9809286      -60.4946451      89.9641296      -56.9058674     -89.9905476
4.0544               -31.2585058       90.000774      -60.4645776      89.9810448      -60.4649345      89.9639665      -56.9198919      -89.990441
4.056                -31.2344492      90.0007793      -60.4348007      89.9811898      -60.4351605      89.9638377      -56.9339455     -89.9903453
4.0576               -31.2103615      90.0007837      -60.4049588      89.9813624      -60.4053229      89.9637423      -56.9480285     -89.9902607
4.0592               -31.1862423      90.0007873      -60.3750516      89.9815614      -60.3754213      89.9636793      -56.9621411     -89.9901869
4.0608               -31.1620914      90.0007902       -60.345079      89.9817858      -60.3454554      89.9636476      -56.9762834     -89.9901241
4.0624               -31.1379087      90.0007922      -60.3150406      89.9820344      -60.3154249      89.9636464      -56.9904557     -89.9900721
4.064                -31.1136938      90.0007935       -60.284936      89.9823059      -60.2853294      89.9636744      -57.0046583     -89.9900309
4.0656               -31.0894465       90.000794      -60.2547651      89.9825994      -60.2551688      89.9637308      -57.0188913     -89.9900005
4.0672               -31.0651666      90.0007938      -60.2245275      89.9829135      -60.2249426      89.9638144       -57.033155     -89.9899809
4.0688               -31.0408538      90.0007929       -60.194223      89.9832472      -60.1946507      89.9639243      -57.0474495     -89.9899719
4.0704               -31.0165079      90.0007913      -60.1638512      89.9835992      -60.1642925      89.9640594      -57.0617752     -89.9899735
4.072                -30.9921286      90.0007889       -60.133412      89.9839683       -60.133868      89.9642187      -57.0761322     -89.9899856
4.0736               -30.9677157       90.000786      -60.1029049      89.9843535      -60.1033767       89.964401      -57.0905208     -89.9900082
4.0752               -30.9432688      90.0007823      -60.0723298      89.9847535      -60.0728183      89.9646055      -57.1049412      -89.990041
4.0768               -30.9187879      90.0007781      -60.0416864      89.9851671      -60.0421927      89.9648309      -57.1193936     -89.9900841
4.0784               -30.8942725      90.0007732      -60.0109744      89.9855932      -60.0114994      89.9650762      -57.1338782     -89.9901373
4.08                 -30.8697224      90.0007677      -59.9801935      89.9860305      -59.9807382      89.9653404      -57.1483954     -89.9902006
4.0816               -30.8451375      90.0007617      -59.9493436      89.9864779      -59.9499087      89.9656224      -57.1629454     -89.9902736
4.0832               -30.8205173      90.0007551      -59.9184242      89.9869343      -59.9190108      89.9659211      -57.1775283     -89.9903565
4.0848               -30.7958616      90.0007481      -59.8874352      89.9873984      -59.8880441      89.9662355      -57.1921444     -89.9904489
4.0864               -30.7711702      90.0007405      -59.8563763      89.9878691      -59.8570083      89.9665645       -57.206794     -89.9905508
4.088                -30.7464428      90.0007324      -59.8252472      89.9883452      -59.8259032      89.9669071      -57.2214773     -89.9906619
4.0896               -30.7216791      90.0007239      -59.7940477      89.9888255      -59.7947284      89.9672622      -57.2361946     -89.9907822
4.0912               -30.6968788       90.000715      -59.7627776       89.989309      -59.7634837      89.9676287      -57.2509461     -89.9909114
4.0928               -30.6720416      90.0007057      -59.7314366      89.9897944      -59.7321688      89.9680056      -57.2657321     -89.9910493
4.0944               -30.6471673       90.000696      -59.7000244      89.9902807      -59.7007834      89.9683918      -57.2805527     -89.9911958
4.096                -30.6222555       90.000686      -59.6685408      89.9907667      -59.6693272      89.9687863      -57.2954084     -89.9913506
4.0976               -30.5973061      90.0006757      -59.6369856      89.9912512      -59.6378001      89.9691881      -57.3102992     -89.9915136
4.0992               -30.5723186      90.0006651      -59.6053585      89.9917333      -59.6062016      89.9695961      -57.3252255     -89.9916844
4.1008               -30.5472928      90.0006542      -59.5736593      89.9922117      -59.5745316      89.9700094      -57.3401876     -89.9918629
4.1024               -30.5222283      90.0006432      -59.5418877      89.9926855      -59.5427898      89.9704268      -57.3551857     -89.9920488
4.104                 -30.497125      90.0006319      -59.5100436      89.9931535      -59.5109758      89.9708475        -57.37022     -89.9922419
4.1056               -30.4719824      90.0006205      -59.4781267      89.9936147      -59.4790895      89.9712704      -57.3852908     -89.9924418
4.1072               -30.4468003      90.0006089      -59.4461367      89.9940681      -59.4471305      89.9716946      -57.4003984     -89.9926484
4.1088               -30.4215783      90.0005973      -59.4140735      89.9945127      -59.4150987      89.9721191       -57.415543     -89.9928613
4.1104               -30.3963162      90.0005856      -59.3819368      89.9949474      -59.3829937      89.9725429       -57.430725     -89.9930803
4.112                -30.3710136      90.0005738      -59.3497263      89.9953714      -59.3508153      89.9729651      -57.4459445      -89.993305
4.1136               -30.3456702      90.0005621       -59.317442      89.9957835      -59.3185633      89.9733848      -57.4612019     -89.9935351
4.1152               -30.3202857      90.0005504      -59.2850835       89.996183      -59.2862373      89.9738011      -57.4764974     -89.9937703
4.1168               -30.2948597      90.0005388      -59.2526506       89.996569      -59.2538371      89.9742132      -57.4918313     -89.9940103
4.1184                -30.269392      90.0005273      -59.2201431      89.9969404      -59.2213625      89.9746201      -57.5072038     -89.9942547
4.12                 -30.2438821      90.0005159      -59.1875609      89.9972965      -59.1888133       89.975021      -57.5226153     -89.9945032
4.1216               -30.2183297      90.0005047      -59.1549036      89.9976364      -59.1561891      89.9754152       -57.538066     -89.9947554
4.1232               -30.1927346      90.0004938      -59.1221712      89.9979594      -59.1234897      89.9758017      -57.5535562     -89.9950109
4.1248               -30.1670963       90.000483      -59.0893633      89.9982647      -59.0907149      89.9761799      -57.5690861     -89.9952694
4.1264               -30.1414145      90.0004726      -59.0564797      89.9985514      -59.0578644       89.976549      -57.5846561     -89.9955305
4.128                -30.1156888      90.0004625      -59.0235203       89.998819       -59.024938      89.9769082      -57.6002663     -89.9957938
4.1296                -30.089919      90.0004527      -58.9904849      89.9990668      -58.9919355      89.9772569      -57.6159172     -89.9960588
4.1312               -30.0641045      90.0004433      -58.9573732      89.9992941      -58.9588565      89.9775945       -57.631609     -89.9963253
4.1328               -30.0382452      90.0004343       -58.924185      89.9995002      -58.9257008      89.9779202      -57.6473419     -89.9965926
4.1344               -30.0123405      90.0004259      -58.8909202      89.9996847      -58.8924683      89.9782335      -57.6631162     -89.9968605
4.136                -29.9863902      90.0004178      -58.8575785       89.999847      -58.8591586      89.9785338      -57.6789323     -89.9971285
4.1376               -29.9603938      90.0004104      -58.8241597      89.9999867      -58.8257715      89.9788205      -57.6947903     -89.9973961
4.1392                -29.934351      90.0004035      -58.7906636      90.0001032      -58.7923067      89.9790932      -57.7106907     -89.9976628
4.1408               -29.9082614      90.0003971      -58.7570901      90.0001962      -58.7587641      89.9793514      -57.7266336     -89.9979284
4.1424               -29.8821246      90.0003915      -58.7234388      90.0002653      -58.7251433      89.9795947      -57.7426194     -89.9981922
4.144                -29.8559402      90.0003864      -58.6897096      90.0003102      -58.6914441      89.9798226      -57.7586483     -89.9984538
4.1456               -29.8297077      90.0003821      -58.6559024      90.0003307      -58.6576663      89.9800348      -57.7747206     -89.9987127
4.1472               -29.8034269      90.0003785      -58.6220168      90.0003264      -58.6238096       89.980231      -57.7908366     -89.9989685
4.1488               -29.7770973      90.0003756      -58.5880527      90.0002974      -58.5898738      89.9804109      -57.8069966     -89.9992207
4.1504               -29.7507185      90.0003736      -58.5540098      90.0002433      -58.5558586      89.9805744      -57.8232009     -89.9994688
4.152                -29.7242901      90.0003723       -58.519888      90.0001642      -58.5217637      89.9807211      -57.8394498     -89.9997124
4.1536               -29.6978118      90.0002761      -58.4856806       89.999991      -58.4875826      89.9807818      -57.8557438     -89.9999498
4.1552               -29.6712832      90.0001805      -58.4513938      89.9997922      -58.4533213      89.9808252       -57.872083     -90.0001816
4.1568               -29.6447036      90.0000901      -58.4170278      89.9995715      -58.4189799      89.9808545      -57.8884675     -90.0004075
4.1584               -29.6180726      90.0000051      -58.3825822       89.999329      -58.3845581      89.9808698      -57.9048978     -90.0006268
4.16                 -29.5913899      89.9999256      -58.3480569       89.999065      -58.3500557      89.9808713       -57.921374     -90.0008392
4.1616                -29.564655      89.9998518      -58.3134516        89.99878      -58.3154724      89.9808592      -57.9378966     -90.0010441
4.1632               -29.5378674      89.9997839      -58.2787662      89.9984744       -58.280808      89.9808337      -57.9544656     -90.0012411
4.1648               -29.5110267      89.9997221      -58.2440003      89.9981486      -58.2460621      89.9807952      -57.9710815     -90.0014296
4.1664               -29.4841325      89.9996663      -58.2091538      89.9978033      -58.2112346       89.980744      -57.9877446     -90.0016094
4.168                -29.4571842      89.9996168      -58.1742264      89.9974391       -58.176325      89.9806806       -58.004455     -90.0017798
4.1696               -29.4301814      89.9995737      -58.1392178      89.9970565      -58.1413332      89.9806053      -58.0212131     -90.0019405
4.1712               -29.4031236       89.999537      -58.1041278      89.9966564      -58.1062588      89.9805187      -58.0380192      -90.002091
4.1728               -29.3760104      89.9995069      -58.0689562      89.9962395      -58.0711016      89.9804213      -58.0548736     -90.0022308
4.1744               -29.3488413      89.9994834      -58.0337026      89.9958067      -58.0358612      89.9803138      -58.0717765     -90.0023597
4.176                -29.3216158      89.9994666      -57.9983669      89.9953587      -58.0005373      89.9801967      -58.0887282     -90.0024771
4.1776               -29.2943334      89.9994565      -57.9629486      89.9948967      -57.9651297      89.9800707       -58.105729     -90.0025827
4.1792               -29.2669936      89.9994532      -57.9274475      89.9944216      -57.9296379      89.9799367      -58.1227793     -90.0026761
4.1808               -29.2395959      89.9994566      -57.8918634      89.9939345      -57.8940616      89.9797953      -58.1398792      -90.002757
4.1824               -29.2121398      89.9994669      -57.8561958      89.9934365      -57.8584005      89.9796475      -58.1570291     -90.0028251
4.184                -29.1846249      89.9994838      -57.8204445      89.9929288      -57.8226543       89.979494      -58.1742292       -90.00288
4.1856               -29.1570505      89.9995075      -57.7846092      89.9924126      -57.7868225      89.9793359      -58.1914799     -90.0029215
4.1872               -29.1294162      89.9995379      -57.7486894      89.9918892      -57.7509049      89.9791741      -58.2087813     -90.0029493
4.1888               -29.1017214      89.9995749      -57.7126849        89.99136      -57.7149009      89.9790096      -58.2261339     -90.0029632
4.1904               -29.0739657      89.9996183      -57.6765952      89.9908264      -57.6788103      89.9788435      -58.2435379     -90.0029631
4.192                -29.0461485      89.9996682        -57.64042      89.9902898      -57.6426326      89.9786769      -58.2609935     -90.0029486
4.1936               -29.0182692      89.9997244      -57.6041589      89.9897517      -57.6063674      89.9785109      -58.2785011     -90.0029198
4.1952               -28.9903274      89.9997866      -57.5678114      89.9892137      -57.5700142      89.9783467      -58.2960609     -90.0028766
4.1968               -28.9623225      89.9998548      -57.5313772      89.9886773      -57.5335726      89.9781856      -58.3136733     -90.0028188
4.1984               -28.9342539      89.9999287      -57.4948558      89.9881443      -57.4970422      89.9780288      -58.3313385     -90.0027465
4.2                   -28.906121      90.0000082      -57.4582468      89.9876163      -57.4604224      89.9778776      -58.3490568     -90.0026597
4.2016               -28.8779234      90.0000929      -57.4215496      89.9870951      -57.4237129      89.9777333      -58.3668285     -90.0025585
4.2032               -28.8496605      90.0001827      -57.3847638      89.9865823       -57.386913      89.9775973       -58.384654     -90.0024431
4.2048               -28.8213317      90.0002772      -57.3478889      89.9860799      -57.3500223       89.977471      -58.4025334     -90.0023136
4.2064               -28.7929364      90.0003761      -57.3109244      89.9855896      -57.3130402      89.9773557      -58.4204672     -90.0021703
4.208                -28.7644741       90.000479      -57.2738696      89.9851134      -57.2759662      89.9772529      -58.4384555     -90.0020134
4.2096               -28.7359442      90.0005857      -57.2367241       89.984653      -57.2387997      89.9771641      -58.4564988     -90.0018434
4.2112               -28.7073461      90.0006956      -57.1994873      89.9842104      -57.2015401      89.9770907      -58.4745973     -90.0016607
4.2128               -28.6786792      90.0008085      -57.1621585      89.9837876      -57.1641868      89.9770341      -58.4927514     -90.0014657
4.2144               -28.6499431      90.0009238      -57.1247371      89.9833865      -57.1267392      89.9769958      -58.5109613     -90.0012591
4.216                -28.6211369       90.001041      -57.0872226       89.983009      -57.0891966      89.9769774      -58.5292274     -90.0010414
4.2176               -28.5922606      90.0010666      -57.0496083      89.9825852      -57.0515527      89.9769083      -58.5475505     -90.0008117
4.2192               -28.5633133      90.0010914      -57.0118994      89.9821874      -57.0138123      89.9768605      -58.5659304     -90.0005723
4.2208               -28.5342942      90.0011154      -56.9740951      89.9818179      -56.9759749      89.9768356      -58.5843676     -90.0003242
4.2224               -28.5052028      90.0011383      -56.9361948      89.9814789      -56.9380397      89.9768355      -58.6028623     -90.0000684
4.224                -28.4760386      90.0011601      -56.8981977      89.9811727      -56.9000061      89.9768619       -58.621415     -89.9998058
4.2256                -28.446801      90.0011806       -56.860103      89.9809016      -56.8618732      89.9769165       -58.640026     -89.9995376
4.2272               -28.4174892      90.0011995      -56.8219099      89.9806677      -56.8236403      89.9770011      -58.6586957     -89.9992651
4.2288               -28.3881028      90.0012168      -56.7836177      89.9804733      -56.7853066      89.9771174      -58.6774246     -89.9989896
4.2304               -28.3586411      90.0012322      -56.7452255      89.9803206      -56.7468714       89.977267      -58.6962129     -89.9987124
4.232                -28.3291036      90.0012456      -56.7067324      89.9802116      -56.7083338      89.9774515      -58.7150611     -89.9984352
4.2336               -28.2994896      90.0012567      -56.6681376      89.9801485      -56.6696929      89.9776726      -58.7339697     -89.9981596
4.2352               -28.2697986      90.0012655      -56.6294401      89.9801333      -56.6309479      89.9779317      -58.7529392     -89.9978873
4.2368               -28.2400299      90.0012716       -56.590639      89.9801679      -56.5920979      89.9782302      -58.7719699       -89.99762
4.2384               -28.2101829      90.0012749      -56.5517334      89.9802542       -56.553142      89.9785695      -58.7910624     -89.9973599
4.24                 -28.1802571      90.0012752      -56.5127222       89.980394      -56.5140792       89.978951      -58.8102171     -89.9971089
4.2416               -28.1502518      90.0012722      -56.4736045       89.980589      -56.4749086      89.9793757      -58.8294347     -89.9968691
4.2432               -28.1201665      90.0012658      -56.4343791      89.9808406      -56.4356293      89.9798448      -58.8487157     -89.9966429
4.2448               -28.0900006      90.0012558      -56.3950451      89.9811505      -56.3962401      89.9803592      -58.8680605     -89.9964326
4.2464               -28.0597535      90.0012418      -56.3556013      89.9815197        -56.35674      89.9809196        -58.88747     -89.9962407
4.248                -28.0294245      90.0012238      -56.3160466      89.9819495      -56.3171282      89.9815268      -58.9069446     -89.9960698
4.2496               -27.9990132      90.0012016      -56.2763798      89.9824408      -56.2774033      89.9821814      -58.9264851     -89.9959225
4.2512               -27.9685189      90.0011748      -56.2365999      89.9829945      -56.2375645      89.9828835      -58.9460921     -89.9958016
4.2528                -27.937941      90.0011433      -56.1967056       89.983611      -56.1976106      89.9836334      -58.9657664     -89.9957101
4.2544               -27.9072791       90.001107      -56.1566956      89.9842908      -56.1575404      89.9844311      -58.9855087     -89.9956508
4.256                -27.8765325      90.0010655      -56.1165688      89.9850339      -56.1173528      89.9852762      -59.0053198     -89.9956268
4.2576               -27.8457006      90.0010188      -56.0763239      89.9858403      -56.0770467      89.9861684      -59.0252007     -89.9956412
4.2592                -27.814783      90.0009667      -56.0359597      89.9867096       -56.036621      89.9871069      -59.0451521     -89.9956972
4.2608               -27.7837791       90.000909      -55.9954747      89.9876411      -55.9960743      89.9880907      -59.0651751     -89.9957981
4.2624               -27.7526882      90.0008455      -55.9548678      89.9886339      -55.9554056      89.9891186      -59.0852706     -89.9959471
4.264                -27.7215099      90.0007761      -55.9141376      89.9896867      -55.9146137      89.9901891      -59.1054396     -89.9961475
4.2656               -27.6902437      90.0007007      -55.8732828      89.9907979      -55.8736973      89.9913003      -59.1256832     -89.9964028
4.2672                -27.658889      90.0006193      -55.8323021      89.9919656      -55.8326553      89.9924501      -59.1460026     -89.9967162
4.2688               -27.6274453      90.0005316       -55.791194      89.9931873      -55.7914864      89.9936362       -59.166399      -89.997091
4.2704               -27.5959121      90.0004377      -55.7499574      89.9944606      -55.7501895      89.9948556      -59.1868737     -89.9975307
4.272                -27.5642888      90.0003376      -55.7085907      89.9957821      -55.7087633      89.9961052      -59.2074279     -89.9980383
4.2736                -27.532575      90.0002313      -55.6670927      89.9971486      -55.6672066      89.9973816       -59.228063      -89.998617
4.2752               -27.5007702      90.0001187       -55.625462      89.9985559      -55.6255184      89.9986807      -59.2487806       -89.99927
4.2768               -27.4688738      90.0000001      -55.5836974      89.9999998      -55.5836973      89.9999985      -59.2695822             -90
4.2784               -27.4368865       89.999629      -55.5417836      90.0012737      -55.5417284      90.0011283      -59.2904707     -90.0008021
4.28                 -27.4048067       89.999232      -55.4997323       90.002557      -55.4996235        90.00225      -59.3114466     -90.0016857
4.2816               -27.3726341      89.9988108      -55.4575422       90.003845      -55.4573814      90.0033591      -59.3325116     -90.0026531
4.2832                -27.340368      89.9983655      -55.4152121      90.0051316      -55.4150013      90.0044496      -59.3536676     -90.0037061
4.2848               -27.3080081       89.997897      -55.3727408      90.0064101       -55.372482      90.0055156      -59.3749165     -90.0048465
4.2864               -27.2755538      89.9974058      -55.3301274      90.0076737      -55.3298226      90.0065505      -59.3962602     -90.0060754
4.288                -27.2430047       89.996893      -55.2873706       90.008915      -55.2870224      90.0075477      -59.4177009     -90.0073936
4.2896               -27.2103603      89.9963596      -55.2444696      90.0101263      -55.2440803         90.0085      -59.4392406     -90.0088014
4.2912                 -27.17762      89.9958071      -55.2014234      90.0112998      -55.2009958      90.0094003      -59.4608817     -90.0102987
4.2928               -27.1447833       89.995237      -55.1582312      90.0124269      -55.1577682       90.010241      -59.4826264     -90.0118844
4.2944               -27.1118498      89.9946511      -55.1148922      90.0134992      -55.1143968      90.0110145       -59.504477      -90.013557
4.296                -27.0788188      89.9940516      -55.0714058      90.0145077      -55.0708812       90.011713      -59.5264361     -90.0153142
4.2976               -27.0456899      89.9934408      -55.0277714      90.0154435      -55.0272209      90.0123283       -59.548506     -90.0171529
4.2992               -27.0124624      89.9928212      -54.9839887      90.0162972      -54.9834158      90.0128526      -59.5706894     -90.0190689
4.3008               -26.9791358      89.9921958      -54.9400572      90.0170595      -54.9394657      90.0132779      -59.5929889     -90.0210572
4.3024               -26.9457094      89.9915677      -54.8959769       90.017721      -54.8953704      90.0135961      -59.6154071     -90.0231117
4.304                -26.9121825      89.9909405      -54.8517476      90.0182724      -54.8511301      90.0137994      -59.6379466      -90.025225
4.3056               -26.8785545       89.990318      -54.8073695      90.0187045       -54.806745      90.0138802      -59.6606102     -90.0273886
4.3072               -26.8448245      89.9897042      -54.7628427       90.019008      -54.7622155      90.0138313      -59.6834004     -90.0295925
4.3088               -26.8109918      89.9891035      -54.7181678      90.0191744       -54.717542      90.0136457        -59.70632     -90.0318255
4.3104               -26.7770555      89.9885208      -54.6733453      90.0191953      -54.6727251      90.0133171      -59.7293716     -90.0340747
4.312                -26.7430146      89.9879609      -54.6283759      90.0190629      -54.6277658      90.0128397      -59.7525577     -90.0363256