! TOUCHSTONE file generated by CST MICROWAVE STUDIO
! Date and time: Wed Jan 22 20:13:23 2025
! Project name: NUEVA_TRANSICION_CORTO.cst
! Parameters = {DespTor=4.318; H=17; Hcono=2.59394; Hstep1=13.4144; Hstep2=6.31893; Hstep3=0; Htuerca=0.1; L=55; Lback=11; Ldielectrico=9.525; Lstep1=12.9914; Lstep2=10.8318; Lstep3=9.99957; Ltor=4; Nsegments=0; Ragujero=1.4615; Rcono1=4.39874; Rcono2=2.78582; Rext=2.055; Rint=0.635; Rtor=1.275; Rtuerca=2.451; Target=-30; W=34; lopt1=0.632257; lopt2=6.83182; lopt3=5.99957; rrcono2=2.78582; thickness=2; topthickness=3}
! Header version: 2018
! Port assignment regex: !\s*Touchstone port\s*([0-9]+)\s*=\s*(CST MWS port|CST DS port)\s*([0-9]+|Zmin|Zmax)\s*\(\"(.*)\"\)(\s*mode\s*([0-9]+))?.*
! Touchstone port assignment:
! Touchstone port 1 = CST MWS port 1 ("")
! Touchstone port 2 = CST MWS port 2 ("")
# GHz Z DB R 1
4                     31.8948286     -89.9999541       26.9123915      -89.999953       26.9112701     -90.0053907       56.2935209      90.0001059
4.0016                31.8708459     -89.9999211       26.9293339     -90.0017578       26.9282612     -90.0075732       56.3058321      89.9997318
4.0032                31.8468327      -89.999889        26.946323     -90.0034953       26.9452973     -90.0096878       56.3181601      89.9993648
4.0048                31.8227886     -89.9998577        26.963359     -90.0051659       26.9623786      -90.011735       56.3305048      89.9990049
4.0064                31.7987135     -89.9998273       26.9804421     -90.0067704       26.9795055     -90.0137152       56.3428665      89.9986523
4.008                 31.7746071     -89.9997977       26.9975726     -90.0083093        26.996678      -90.015629       56.3552452       89.998307
4.0096                 31.750469     -89.9997689       27.0147507     -90.0097832       27.0138965     -90.0174767        56.367641      89.9979693
4.0112                31.7262992     -89.9997409       27.0319767     -90.0111927       27.0311612     -90.0192589        56.380054      89.9976392
4.0128                31.7020972     -89.9997138       27.0492507     -90.0125387       27.0484724     -90.0209761       56.3924842      89.9973167
4.0144                31.6778628     -89.9996875       27.0665731     -90.0138217       27.0658302     -90.0226287       56.4049318      89.9970021
4.016                 31.6535958     -89.9996621        27.083944     -90.0150425        27.083235     -90.0242174       56.4173969      89.9966953
4.0176                 31.629296     -89.9996375       27.1013637     -90.0162018       27.1006869     -90.0257428       56.4298795      89.9963966
4.0192                31.6049629     -89.9996137       27.1188324     -90.0173002       27.1181862     -90.0272053       56.4423797      89.9961059
4.0208                31.5805964     -89.9995909       27.1363503     -90.0183387       27.1357331     -90.0286056       56.4548978      89.9958234
4.0224                31.5561962     -89.9995688       27.1539177     -90.0193179       27.1533279     -90.0299444       56.4674336      89.9955492
4.024                  31.531762     -89.9995476       27.1715348     -90.0202387       27.1709709     -90.0312222       56.4799875      89.9952833
4.0256                31.5072935     -89.9995273       27.1892017     -90.0211019       27.1886621     -90.0324396       56.4925593      89.9950259
4.0272                31.4827905     -89.9995078       27.2069188     -90.0219083       27.2064019     -90.0335975       56.5051493       89.994777
4.0288                31.4582527     -89.9994891       27.2246863     -90.0226587       27.2241905     -90.0346964       56.5177576      89.9945367
4.0304                31.4336797     -89.9994713       27.2425043     -90.0233541       27.2420282     -90.0357372       56.5303842       89.994305
4.032                 31.4090714     -89.9994543       27.2603731     -90.0239953       27.2599151     -90.0367204       56.5430292      89.9940821
4.0336                31.3844273     -89.9994382       27.2782929     -90.0245832       27.2778515     -90.0376468       56.5556928       89.993868
4.0352                31.3597473     -89.9994229       27.2962639     -90.0251187       27.2958376     -90.0385173       56.5683751      89.9936628
4.0368                 31.335031     -89.9994084       27.3142864     -90.0256028       27.3138736     -90.0393325       56.5810761      89.9934666
4.0384                31.3102781     -89.9993948       27.3323604     -90.0260364       27.3319598     -90.0400933        56.593796      89.9932793
4.04                  31.2854884      -89.999382       27.3504863     -90.0264205       27.3500964     -90.0408005       56.6065349      89.9931011
4.0416                31.2606614       -89.99937       27.3686642      -90.026756       27.3682835      -90.041455       56.6192929       89.992932
4.0432                31.2357971     -89.9993588       27.3868944     -90.0270441       27.3865215     -90.0420575         56.63207      89.9927721
4.0448                31.2108949     -89.9993485       27.4051771     -90.0272856       27.4048105     -90.0426089       56.6448665      89.9926213
4.0464                31.1859546     -89.9993389       27.4235123     -90.0274817       27.4231508     -90.0431101       56.6576823      89.9924798
4.048                 31.1609759     -89.9993302       27.4419004     -90.0276333       27.4415425     -90.0435621       56.6705178      89.9923476
4.0496                31.1359585     -89.9993222       27.4603416     -90.0277416       27.4599859     -90.0439657       56.6833728      89.9922247
4.0512                31.1109021      -89.999315       27.4788359     -90.0278076       27.4784812     -90.0443218       56.6962476      89.9921111
4.0528                31.0858063     -89.9993086       27.4973837     -90.0278324       27.4970286     -90.0446314       56.7091423      89.9920069
4.0544                31.0606708      -89.999303       27.5159851     -90.0278172       27.5156282     -90.0448955       56.7220569       89.991912
4.056                 31.0354954     -89.9992981       27.5346402      -90.027763       27.5342804     -90.0451151       56.7349916      89.9918265
4.0576                31.0102796      -89.999294       27.5533493      -90.027671       27.5529852      -90.045291       56.7479466      89.9917504
4.0592                30.9850231     -89.9992906       27.5721125     -90.0275423       27.5717429     -90.0454244       56.7609219      89.9916836
4.0608                30.9597256     -89.9992879         27.59093     -90.0273781       27.5905537     -90.0455162       56.7739176      89.9916263
4.0624                30.9343868      -89.999286        27.609802     -90.0271795       27.6094177     -90.0455675       56.7869339      89.9915783
4.064                 30.9090064     -89.9992847       27.6287287     -90.0269478       27.6283352     -90.0455794       56.7999709      89.9915397
4.0656                30.8835839     -89.9992842       27.6477101     -90.0266842       27.6473064     -90.0455528       56.8130287      89.9915104
4.0672                 30.858119     -89.9992843       27.6667465     -90.0263899       27.6663314      -90.045489       56.8261074      89.9914904
4.0688                30.8326114     -89.9992851        27.685838      -90.026066       27.6854103     -90.0453888       56.8392072      89.9914797
4.0704                30.8070608     -89.9992865       27.7049848     -90.0257138       27.7045435     -90.0452536       56.8523281      89.9914783
4.072                 30.7814667     -89.9992886        27.724187     -90.0253346        27.723731     -90.0450843       56.8654704       89.991486
4.0736                30.7558289     -89.9992912       27.7434447     -90.0249296        27.742973      -90.044882        56.878634      89.9915029
4.0752                30.7301469     -89.9992945       27.7627582        -90.0245       27.7622697     -90.0446481       56.8918192      89.9915288
4.0768                30.7044203     -89.9992984       27.7821275     -90.0240472       27.7816213     -90.0443834       56.9050261      89.9915638
4.0784                30.6786489     -89.9993029       27.8015528     -90.0235724       27.8010278     -90.0440893       56.9182547      89.9916077
4.08                  30.6528323     -89.9993079       27.8210342     -90.0230768       27.8204896     -90.0437669       56.9315053      89.9916604
4.0816                  30.62697     -89.9993134       27.8405718     -90.0225618       27.8400066     -90.0434174       56.9447779      89.9917219
4.0832                30.6010617     -89.9993195       27.8601658     -90.0220287       27.8595791     -90.0430419       56.9580727      89.9917921
4.0848                 30.575107      -89.999326       27.8798162     -90.0214787       27.8792073     -90.0426416       56.9713898      89.9918709
4.0864                30.5491055     -89.9993331       27.8995232     -90.0209132       27.8988912     -90.0422177       56.9847293      89.9919582
4.088                 30.5230568     -89.9993406       27.9192869     -90.0203335        27.918631     -90.0417715       56.9980913      89.9920538
4.0896                30.4969605     -89.9993485       27.9391074     -90.0197408       27.9384268     -90.0413041       57.0114761      89.9921576
4.0912                30.4708163     -89.9993568       27.9589848     -90.0191365       27.9582787     -90.0408168       57.0248836      89.9922696
4.0928                30.4446237     -89.9993656       27.9789192     -90.0185218        27.978187     -90.0403107       57.0383142      89.9923894
4.0944                30.4183823     -89.9993747       27.9989106     -90.0178982       27.9981516     -90.0397871       57.0517677      89.9925171
4.096                 30.3920917     -89.9993842       28.0189593     -90.0172669       28.0181728     -90.0392472       57.0652445      89.9926525
4.0976                30.3657515      -89.999394       28.0390651     -90.0166292       28.0382506     -90.0386923       57.0787446      89.9927953
4.0992                30.3393612     -89.9994041       28.0592283     -90.0159864       28.0583851     -90.0381235       57.0922682      89.9929454
4.1008                30.3129205     -89.9994144       28.0794489     -90.0153398       28.0785765     -90.0375421       57.1058154      89.9931027
4.1024                30.2864289     -89.9994251       28.0997269     -90.0146908       28.0988248     -90.0369494       57.1193863      89.9932669
4.104                  30.259886     -89.9994359       28.1200624     -90.0140405       28.1191302     -90.0363465        57.132981      89.9934379
4.1056                30.2332914      -89.999447       28.1404555     -90.0133904       28.1394927     -90.0357347       57.1465998      89.9936154
4.1072                30.2066445     -89.9994582       28.1609062     -90.0127416       28.1599124     -90.0351152       57.1602426      89.9937992
4.1088                 30.179945     -89.9994696       28.1814146     -90.0120955       28.1803894     -90.0344892       57.1739097      89.9939891
4.1104                30.1531924     -89.9994811       28.2019807     -90.0114533       28.2009237     -90.0338579       57.1876012      89.9941848
4.112                 30.1263863     -89.9994927       28.2226045     -90.0108163       28.2215155     -90.0332226       57.2013172      89.9943862
4.1136                30.0995261     -89.9995043       28.2432861     -90.0101857       28.2421648     -90.0325844       57.2150578      89.9945929
4.1152                30.0726115      -89.999516       28.2640254     -90.0095627       28.2628716     -90.0319446       57.2288232      89.9948047
4.1168                30.0456419     -89.9995277       28.2848226     -90.0089485       28.2836361     -90.0313043       57.2426135      89.9950214
4.1184                30.0186169     -89.9995394       28.3056776     -90.0083444       28.3044582     -90.0306646       57.2564288      89.9952426
4.12                   29.991536     -89.9995511       28.3265905     -90.0077514       28.3253381     -90.0300269       57.2702693       89.995468
4.1216                29.9643988     -89.9995627       28.3475611     -90.0071709       28.3462757     -90.0293921        57.284135      89.9956975
4.1232                29.9372046     -89.9995741       28.3685896     -90.0066038        28.367271     -90.0287615       57.2980262      89.9959306
4.1248                29.9099531     -89.9995855       28.3896759     -90.0060514       28.3883242     -90.0281361       57.3119429       89.996167
4.1264                29.8826437     -89.9995967         28.41082     -90.0055147       28.4094353     -90.0275172       57.3258853      89.9964065
4.128                 29.8552759     -89.9996076       28.4320219     -90.0049948       28.4306042     -90.0269056       57.3398534      89.9966486
4.1296                29.8278493     -89.9996184       28.4532816     -90.0044928        28.451831     -90.0263026       57.3538475      89.9968931
4.1312                29.8003632     -89.9996289        28.474599     -90.0040096       28.4731157     -90.0257092       57.3678676      89.9971396
4.1328                29.7728172     -89.9996392        28.495974     -90.0035463       28.4944582     -90.0251264       57.3819139      89.9973878
4.1344                29.7452108     -89.9996491       28.5174068     -90.0031039       28.5158587     -90.0245551       57.3959864      89.9976373
4.136                 29.7175433     -89.9996587       28.5388971     -90.0026832        28.537317     -90.0239965       57.4100854      89.9978876
4.1376                29.6898143     -89.9996679        28.560445     -90.0022852       28.5588332     -90.0234513       57.4242108      89.9981385
4.1392                29.6620233     -89.9996767       28.5820503     -90.0019107       28.5804073     -90.0229207        57.438363      89.9983896
4.1408                29.6341696     -89.9996851       28.6037132     -90.0015606       28.6020392     -90.0224054       57.4525418      89.9986404
4.1424                29.6062528     -89.9996931       28.6254333     -90.0012356       28.6237288     -90.0219063       57.4667475      89.9988905
4.144                 29.5782722     -89.9997006       28.6472108     -90.0009366       28.6454763     -90.0214242       57.4809803      89.9991396
4.1456                29.5502272     -89.9997075       28.6690454     -90.0006641       28.6672815       -90.02096       57.4952401      89.9993873
4.1472                29.5221174      -89.999714       28.6909373      -90.000419       28.6891444     -90.0205144       57.5095271      89.9996331
4.1488                29.4939421     -89.9997198       28.7128861     -90.0002017        28.711065     -90.0200882       57.5238414      89.9998765
4.1504                29.4657008     -89.9997251       28.7348919      -90.000013       28.7330431     -90.0196819       57.5381832      90.0001173
4.152                 29.4373927     -89.9997298       28.7569545     -89.9998533       28.7550788     -90.0192964       57.5525524      90.0003548
4.1536                29.4090173     -89.9996366       28.7790805     -89.9996959       28.7771785      -90.018905       57.5669492      90.0005892
4.1552                29.3805739     -89.9995425        28.801263     -89.9995687       28.7993356     -90.0185357       57.5813737      90.0008196
4.1568                29.3520621     -89.9994521       28.8235018     -89.9994731       28.8215497     -90.0181901       57.5958261      90.0010455
4.1584                29.3234811     -89.9993655       28.8457967     -89.9994097       28.8438208     -90.0178689       57.6103063      90.0012664
4.16                  29.2948305     -89.9992828       28.8681476     -89.9993786       28.8661488     -90.0175723       57.6248146       90.001482
4.1616                29.2661094     -89.9992042       28.8905544     -89.9993801       28.8885336     -90.0173009        57.639351      90.0016917
4.1632                29.2373174     -89.9991298       28.9130168     -89.9994143        28.910975      -90.017055       57.6539156      90.0018952
4.1648                29.2084536     -89.9990597       28.9355349     -89.9994814       28.9334731     -90.0168348       57.6685085      90.0020921
4.1664                29.1795176      -89.998994       28.9581084     -89.9995812       28.9560276     -90.0166406       57.6831297      90.0022817
4.168                 29.1505086     -89.9989328       28.9807372     -89.9997139       28.9786385     -90.0164724       57.6977794      90.0024638
4.1696                29.1214259     -89.9988762       29.0034212     -89.9998792       29.0013058     -90.0163305       57.7124576      90.0026379
4.1712                29.0922688     -89.9988244       29.0261602      -90.000077       29.0240292     -90.0162147       57.7271644      90.0028036
4.1728                29.0630368     -89.9987773       29.0489542      -90.000307       29.0468088     -90.0161252       57.7418999      90.0029604
4.1744                 29.033729     -89.9987351       29.0718028     -90.0005688       29.0696443     -90.0160617       57.7566642       90.003108
4.176                 29.0043448     -89.9986978       29.0947061      -90.000862       29.0925357     -90.0160241       57.7714572      90.0032459
4.1776                28.9748835     -89.9986655       29.1176639     -90.0011861       29.1154829     -90.0160121       57.7862791      90.0033737
4.1792                28.9453443     -89.9986382        29.140676     -90.0015404       29.1384857     -90.0160254         57.80113      90.0034911
4.1808                28.9157265     -89.9986159       29.1637423     -90.0019244       29.1615441     -90.0160636       57.8160098      90.0035977
4.1824                28.8860294     -89.9985988       29.1868627     -90.0023372        29.184658     -90.0161262       57.8309187      90.0036932
4.184                 28.8562523     -89.9985867        29.210037     -90.0027779       29.2078272     -90.0162127       57.8458566      90.0037771
4.1856                28.8263944     -89.9985798        29.233265     -90.0032457       29.2310517     -90.0163224       57.8608237      90.0038492
4.1872                28.7964548     -89.9985779       29.2565468     -90.0037394       29.2543313     -90.0164545         57.87582      90.0039093
4.1888                 28.766433     -89.9985812        29.279882     -90.0042579        29.277666     -90.0166084       57.8908455      90.0039569
4.1904                28.7363281     -89.9985895       29.3032707        -90.0048       29.3010556     -90.0167829       57.9059002      90.0039919
4.192                 28.7061392     -89.9986028       29.3267127     -90.0053644       29.3245001     -90.0169773       57.9209842       90.004014
4.1936                28.6758657     -89.9986211       29.3502079     -90.0059496       29.3479994     -90.0171904       57.9360975      90.0040231
4.1952                28.6455067     -89.9986443       29.3737562      -90.006554       29.3715534      -90.017421       57.9512402      90.0040189
4.1968                28.6150614     -89.9986723       29.3973575     -90.0071762       29.3951621     -90.0176679       57.9664122      90.0040013
4.1984                 28.584529      -89.998705       29.4210117     -90.0078142       29.4188253     -90.0179297       57.9816136      90.0039702
4.2                   28.5539087     -89.9987423       29.4447187     -90.0084663        29.442543      -90.018205       57.9968444      90.0039256
4.2016                28.5231995     -89.9987842       29.4684785     -90.0091305       29.4663152     -90.0184923       58.0121046      90.0038673
4.2032                28.4924008     -89.9988303       29.4922909     -90.0098049       29.4901418     -90.0187899       58.0273943      90.0037955
4.2048                28.4615116     -89.9988807       29.5161561     -90.0104872       29.5140227     -90.0190961       58.0427134      90.0037101
4.2064                28.4305311     -89.9989352       29.5400739     -90.0111752        29.537958     -90.0194091       58.0580619      90.0036112
4.208                 28.3994584     -89.9989934       29.5640442     -90.0118666       29.5619477      -90.019727       58.0734398       90.003499
4.2096                28.3682926     -89.9990554       29.5880672     -90.0125589       29.5859917     -90.0200478       58.0888472      90.0033738
4.2112                28.3370328     -89.9991207       29.6121428     -90.0132496         29.61009     -90.0203694        58.104284      90.0032356
4.2128                28.3056782     -89.9991893        29.636271     -90.0139359       29.6342427     -90.0206895       58.1197503      90.0030849
4.2144                28.2742278     -89.9992608       29.6604519     -90.0146152       29.6584498     -90.0210059        58.135246      90.0029221
4.216                 28.2426807      -89.999335       29.6846855     -90.0152846       29.6827114     -90.0213162       58.1507711      90.0027474
4.2176                28.2110358     -89.9993163       29.7089779     -90.0159194       29.7070335     -90.0215963       58.1663256       90.002562
4.2192                28.1792923     -89.9992978       29.7333233     -90.0165381       29.7314104     -90.0218651       58.1819095      90.0023659
4.2208                28.1474494     -89.9992799       29.7577218     -90.0171377        29.755842     -90.0221201       58.1975228      90.0021597
4.2224                 28.115506     -89.9992625       29.7821735     -90.0177152       29.7803286     -90.0223586       58.2131655      90.0019442
4.224                 28.0834612     -89.9992458       29.8066786     -90.0182672       29.8048702     -90.0225781       58.2288376      90.0017201
4.2256                28.0513141     -89.9992299       29.8312372     -90.0187906        29.829467     -90.0227757       58.2445392      90.0014883
4.2272                28.0190636     -89.9992149       29.8558495     -90.0192821       29.8541191     -90.0229487       58.2602702      90.0012497
4.2288                27.9867088      -89.999201       29.8805157     -90.0197381       29.8788268      -90.023094       58.2760306      90.0010054
4.2304                27.9542487     -89.9991882       29.9052361     -90.0201552       29.9035902     -90.0232088       58.2918205      90.0007564
4.232                 27.9216823     -89.9991768        29.930011       -90.02053       29.9284096       -90.02329       58.3076398       90.000504
4.2336                27.8890085     -89.9991668       29.9548407     -90.0208587       29.9532853     -90.0233346       58.3234886      90.0002495
4.2352                27.8562264     -89.9991585       29.9797255     -90.0211379       29.9782176     -90.0233396        58.339367      89.9999943
4.2368                27.8233349     -89.9991519       30.0046657     -90.0213639       30.0032068     -90.0233016       58.3552749      89.9997398
4.2384                27.7903329     -89.9991472       30.0296619     -90.0215331       30.0282533     -90.0232177       58.3712124      89.9994876
4.24                  27.7572195     -89.9991445       30.0547144     -90.0216416       30.0533574     -90.0230846       58.3871795      89.9992395
4.2416                27.7239936      -89.999144       30.0798238      -90.021686       30.0785196     -90.0228992       58.4031764      89.9989973
4.2432                 27.690654      -89.999146       30.1049906     -90.0216624       30.1037404     -90.0226583       58.4192031      89.9987628
4.2448                27.6571998     -89.9991504       30.1302153     -90.0215673       30.1290203     -90.0223586       58.4352598       89.998538
4.2464                27.6236299     -89.9991575       30.1554986     -90.0213971       30.1543598     -90.0219972       58.4513464       89.998325
4.248                  27.589943     -89.9991675       30.1808411     -90.0211482       30.1797595     -90.0215709       58.4674631      89.9981261
4.2496                27.5561383     -89.9991805       30.2062435     -90.0208172         30.20522     -90.0210767       58.4836102      89.9979435
4.2512                27.5222145     -89.9991967       30.2317067     -90.0204006       30.2307421     -90.0205116       58.4997877      89.9977797
4.2528                27.4881705     -89.9992162       30.2572313     -90.0198951       30.2563263     -90.0198727       58.5159958      89.9976372
4.2544                27.4540052     -89.9992392       30.2828183     -90.0192976       30.2819735     -90.0191573       58.5322348      89.9975186
4.256                 27.4197175     -89.9992658       30.3084685     -90.0186051       30.3076845     -90.0183628       58.5485049      89.9974265
4.2576                27.3853062     -89.9992962        30.334183     -90.0178147       30.3334602     -90.0174866       58.5648063      89.9973638
4.2592                27.3507702     -89.9993305       30.3599627     -90.0169237       30.3593014     -90.0165265       58.5811393      89.9973334
4.2608                27.3161082      -89.999369       30.3858086     -90.0159297        30.385209     -90.0154802       58.5975043      89.9973381
4.2624                27.2813192     -89.9994116        30.411722     -90.0148306       30.4111842     -90.0143459       58.6139016       89.997381
4.264                  27.246402     -89.9994585       30.4377039     -90.0136243       30.4372278     -90.0131219       58.6303316      89.9974651
4.2656                27.2113552     -89.9995099       30.4637556     -90.0123092       30.4633411     -90.0118068       58.6467947      89.9975936
4.2672                27.1761779     -89.9995658       30.4898784     -90.0108841       30.4895252     -90.0103995       58.6632915      89.9977696
4.2688                27.1408686     -89.9996263       30.5160736     -90.0093479       30.5157812     -90.0088991       58.6798224      89.9979963
4.2704                27.1054263     -89.9996915       30.5423426     -90.0077003       30.5421105     -90.0073053       58.6963879      89.9982769
4.272                 27.0698497     -89.9997615       30.5686869     -90.0059411       30.5685143      -90.005618       58.7129887      89.9986144
4.2736                27.0341375     -89.9998362       30.5951078     -90.0040706       30.5949939     -90.0038376       58.7296255      89.9990121
4.2752                26.9982885     -89.9999157       30.6216071     -90.0020898       30.6215508      -90.001965       58.7462989       89.999473
4.2768                26.9623014             -90       30.6481862     -90.0000002       30.6481863     -90.0000015       58.7630098      90.0000001
4.2784                26.9261743     -89.9998331       30.6748613     -89.9977573       30.6749166     -89.9979027       58.7797585      90.0005979
4.28                  26.8899065     -89.9996499       30.7016208     -89.9954072       30.7017296     -89.9957142       58.7965463      90.0012678
4.2816                26.8534967     -89.9994516       30.7284661     -89.9929535       30.7286268     -89.9934395       58.8133742      90.0020122
4.2832                26.8169435     -89.9992382        30.755399     -89.9904005       30.7556098     -89.9910825       58.8302431      90.0028335
4.2848                26.7802456     -89.9990097       30.7824213     -89.9877531       30.7826801     -89.9886476        58.847154      90.0037337
4.2864                26.7434018     -89.9987663       30.8095346     -89.9850173       30.8098393     -89.9861404       58.8641081      90.0047149
4.288                 26.7064105     -89.9985083       30.8367408     -89.9821997        30.837089      -89.983567       58.8811067      90.0057783
4.2896                26.6692705      -89.998236       30.8640415     -89.9793082       30.8644308     -89.9809345       58.8981509      90.0069251
4.2912                26.6319803     -89.9979498       30.8914386     -89.9763514       30.8918661     -89.9782508        58.915242       90.008156
4.2928                26.5945385     -89.9976503       30.9189336     -89.9733391       30.9193966     -89.9755249       58.9323815       90.009471
4.2944                26.5569436     -89.9973383       30.9465284     -89.9702821       30.9470238     -89.9727668       58.9495708      90.0108698
4.296                 26.5191942     -89.9970145       30.9742244     -89.9671925       30.9747491     -89.9699873       58.9668114      90.0123514
4.2976                26.4812888     -89.9966798       31.0020233     -89.9640834       31.0025738     -89.9671986       58.9841049      90.0139139
4.2992                26.4432258     -89.9963353       31.0299265     -89.9609692       31.0304994     -89.9644137       59.0014528      90.0155548
4.3008                26.4050037     -89.9959823       31.0579354     -89.9578655        31.058527     -89.9616471       59.0188568      90.0172707
4.3024                 26.366621      -89.995622       31.0860512     -89.9547893       31.0866577     -89.9589142       59.0363186      90.0190574
4.304                 26.3280759     -89.9952561       31.1142749     -89.9517587       31.1148924     -89.9562317         59.05384      90.0209094
4.3056                26.2893669     -89.9948862       31.1426076     -89.9487932       31.1432321     -89.9536174       59.0714226      90.0228203
4.3072                26.2504923     -89.9945141         31.17105     -89.9459136       31.1716773     -89.9510903       59.0890682      90.0247826
4.3088                26.2114502     -89.9941419       31.1996025      -89.943142       31.2002283     -89.9486707       59.1067785      90.0267871
4.3104                 26.172239     -89.9937717       31.2282653     -89.9405018       31.2288855       -89.94638       59.1245552      90.0288237
4.312                 26.1328568     -89.9934059       31.2570386     -89.9380174       31.2576487     -89.9442406       59.1423999      90.0308806