! TOUCHSTONE file generated by CST MICROWAVE STUDIO
! Date and time: Wed Jan 22 20:13:02 2025
! Project name: NUEVA_TRANSICION_CORTO.cst
! Parameters = {DespTor=4.318; H=17; Hcono=2.59394; Hstep1=13.4144; Hstep2=6.31893; Hstep3=0; Htuerca=0.1; L=55; Lback=11; Ldielectrico=9.525; Lstep1=12.9914; Lstep2=10.8318; Lstep3=9.99957; Ltor=4; Nsegments=0; Ragujero=1.4615; Rcono1=4.39874; Rcono2=2.78582; Rext=2.055; Rint=0.635; Rtor=1.275; Rtuerca=2.451; Target=-30; W=34; lopt1=0.632257; lopt2=6.83182; lopt3=5.99957; rrcono2=2.78582; thickness=2; topthickness=3}
! Header version: 2018
! Port assignment regex: !\s*Touchstone port\s*([0-9]+)\s*=\s*(CST MWS port|CST DS port)\s*([0-9]+|Zmin|Zmax)\s*\(\"(.*)\"\)(\s*mode\s*([0-9]+))?.*
! Touchstone port assignment:
! Touchstone port 1 = CST MWS port 1 ("")
! Touchstone port 2 = CST MWS port 2 ("")
# GHz Z MA R 1
4                     39.3315832     -89.9999541       22.1625423      -89.999953        22.159681     -90.0053907       652.643541      90.0001059
4.0016                39.2231343     -89.9999211       22.2058139     -90.0017578       22.2030716     -90.0075732       653.569242      89.9997318
4.0032                39.1148468      -89.999889       22.2492896     -90.0034953       22.2466624     -90.0096878       654.497517      89.9993648
4.0048                39.0067198     -89.9998577       22.2929708     -90.0051659       22.2904549      -90.011735       655.428379      89.9990049
4.0064                38.8987527     -89.9998273       22.3368591     -90.0067704       22.3344506     -90.0137152       656.361844      89.9986523
4.008                 38.7909444     -89.9997977       22.3809558     -90.0083093       22.3786509      -90.015629       657.297924       89.998307
4.0096                38.6832943     -89.9997689       22.4252625     -90.0097832       22.4230573     -90.0174767       658.236635      89.9979693
4.0112                38.5758014     -89.9997409       22.4697807     -90.0111927       22.4676713     -90.0192589        659.17799      89.9976392
4.0128                38.4684651     -89.9997138       22.5145119     -90.0125387       22.5124945     -90.0209761       660.122004      89.9973167
4.0144                38.3612845     -89.9996875       22.5594576     -90.0138217       22.5575283     -90.0226287       661.068692      89.9970021
4.016                 38.2542588     -89.9996621       22.6046194     -90.0150425       22.6027743     -90.0242174       662.018068      89.9966953
4.0176                38.1473872     -89.9996375       22.6499989     -90.0162018        22.648234     -90.0257428       662.970148      89.9963966
4.0192                38.0406689     -89.9996137       22.6955974     -90.0173002        22.693909     -90.0272053       663.924947      89.9961059
4.0208                37.9341031     -89.9995909       22.7414167     -90.0183387       22.7398008     -90.0286056       664.882479      89.9958234
4.0224                37.8276891     -89.9995688       22.7874582     -90.0193179        22.785911     -90.0299444        665.84276      89.9955492
4.024                 37.7214259     -89.9995476       22.8337235     -90.0202387       22.8322412     -90.0312222       666.805806      89.9952833
4.0256                37.6153128     -89.9995273       22.8802143     -90.0211019       22.8787928     -90.0324396       667.771632      89.9950259
4.0272                 37.509349     -89.9995078        22.926932     -90.0219083       22.9255675     -90.0335975       668.740254       89.994777
4.0288                37.4035337     -89.9994891       22.9738782     -90.0226587        22.972567     -90.0346964       669.711688      89.9945367
4.0304                37.2978662     -89.9994713       23.0210546     -90.0233541       23.0197927     -90.0357372        670.68595       89.994305
4.032                 37.1923456     -89.9994543       23.0684628     -90.0239953       23.0672463     -90.0367204       671.663056      89.9940821
4.0336                37.0869712     -89.9994382       23.1161043     -90.0245832       23.1149295     -90.0376468       672.643022       89.993868
4.0352                36.9817421     -89.9994229       23.1639808     -90.0251187       23.1628438     -90.0385173       673.625865      89.9936628
4.0368                36.8766575     -89.9994084       23.2120938     -90.0256028       23.2109908     -90.0393325       674.611601      89.9934666
4.0384                36.7717167     -89.9993948       23.2604451     -90.0260364       23.2593722     -90.0400933       675.600248      89.9932793
4.04                  36.6669189      -89.999382       23.3090362     -90.0264205       23.3079897     -90.0408005       676.591822      89.9931011
4.0416                36.5622633       -89.99937       23.3578687      -90.026756       23.3568449      -90.041455       677.586341       89.992932
4.0432                36.4577492     -89.9993588       23.4069443     -90.0270441       23.4059394     -90.0420575        678.58382      89.9927721
4.0448                36.3533756     -89.9993485       23.4562647     -90.0272856       23.4552749     -90.0426089       679.584279      89.9926213
4.0464                36.2491419     -89.9993389       23.5058314     -90.0274817       23.5048531     -90.0431101       680.587734      89.9924798
4.048                 36.1450472     -89.9993302       23.5556462     -90.0276333       23.5546756     -90.0435621       681.594203      89.9923476
4.0496                36.0410908     -89.9993222       23.6057106     -90.0277416       23.6047441     -90.0439657       682.603703      89.9922247
4.0512                35.9372718      -89.999315       23.6560265     -90.0278076       23.6550604     -90.0443218       683.616253      89.9921111
4.0528                35.8335896     -89.9993086       23.7065953     -90.0278324       23.7056261     -90.0446314       684.631872      89.9920069
4.0544                35.7300433      -89.999303       23.7574188     -90.0278172       23.7564428     -90.0448955       685.650576       89.991912
4.056                 35.6266321     -89.9992981       23.8084987      -90.027763       23.8075124     -90.0451151       686.672385      89.9918265
4.0576                35.5233552      -89.999294       23.8598366      -90.027671       23.8588364      -90.045291       687.697317      89.9917504
4.0592                35.4202119     -89.9992906       23.9114342     -90.0275423       23.9104167     -90.0454244       688.725391      89.9916836
4.0608                35.3172014     -89.9992879       23.9632932     -90.0273781       23.9622549     -90.0455162       689.756625      89.9916263
4.0624                35.2143229      -89.999286       24.0154153     -90.0271795       24.0143528     -90.0455675        690.79104      89.9915783
4.064                 35.1115756     -89.9992847       24.0678022     -90.0269478       24.0667121     -90.0455794       691.828653      89.9915397
4.0656                35.0089587     -89.9992842       24.1204555     -90.0266842       24.1193344     -90.0455528       692.869485      89.9915104
4.0672                34.9064715     -89.9992843        24.173377     -90.0263899       24.1722216      -90.045489       693.913554      89.9914904
4.0688                34.8041132     -89.9992851       24.2265683      -90.026066       24.2253754     -90.0453888       694.960881      89.9914797
4.0704                34.7018829     -89.9992865       24.2800311     -90.0257138       24.2787975     -90.0452536       696.011485      89.9914783
4.072                 34.5997799     -89.9992886       24.3337672     -90.0253346       24.3324897     -90.0450843       697.065386       89.991486
4.0736                34.4978035     -89.9992912       24.3877782     -90.0249296       24.3864537      -90.044882       698.122604      89.9915029
4.0752                34.3959527     -89.9992945       24.4420658        -90.0245       24.4406912     -90.0446481        699.18316      89.9915288
4.0768                34.2942269     -89.9992984       24.4966318     -90.0240472       24.4952041     -90.0443834       700.247074      89.9915638
4.0784                34.1926253     -89.9993029       24.5514779     -90.0235724        24.549994     -90.0440893       701.314366      89.9916077
4.08                  34.0911471     -89.9993079       24.6066056     -90.0230768       24.6050628     -90.0437669       702.385057      89.9916604
4.0816                33.9897914     -89.9993134       24.6620168     -90.0225618       24.6604122     -90.0434174       703.459168      89.9917219
4.0832                33.8885575     -89.9993195       24.7177131     -90.0220287       24.7160439     -90.0430419       704.536721      89.9917921
4.0848                33.7874447      -89.999326       24.7736963     -90.0214787       24.7719597     -90.0426416       705.617735      89.9918709
4.0864                33.6864521     -89.9993331        24.829968     -90.0209132       24.8281613     -90.0422177       706.702233      89.9919582
4.088                 33.5855789     -89.9993406         24.88653     -90.0203335       24.8846506     -90.0417715       707.790235      89.9920538
4.0896                33.4848244     -89.9993485       24.9433839     -90.0197408       24.9414294     -90.0413041       708.881764      89.9921576
4.0912                33.3841878     -89.9993568       25.0005314     -90.0191365       24.9984992     -90.0408168       709.976841      89.9922696
4.0928                33.2836682     -89.9993656       25.0579743     -90.0185218       25.0558621     -90.0403107       711.075487      89.9923894
4.0944                33.1832649     -89.9993747       25.1157142     -90.0178982       25.1135196     -90.0397871       712.177726      89.9925171
4.096                 33.0829771     -89.9993842       25.1737528     -90.0172669       25.1714736     -90.0392472       713.283578      89.9926525
4.0976                 32.982804      -89.999394       25.2320918     -90.0166292       25.2297258     -90.0386923       714.393067      89.9927953
4.0992                32.8827448     -89.9994041       25.2907329     -90.0159864        25.288278     -90.0381235       715.506214      89.9929454
4.1008                32.7827987     -89.9994144       25.3496778     -90.0153398        25.347132     -90.0375421       716.623043      89.9931027
4.1024                32.6829649     -89.9994251       25.4089281     -90.0146908       25.4062895     -90.0369494       717.743575      89.9932669
4.104                 32.5832426     -89.9994359       25.4684855     -90.0140405       25.4657523     -90.0363465       718.867833      89.9934379
4.1056                32.4836311      -89.999447       25.5283517     -90.0133904       25.5255221     -90.0357347       719.995841      89.9936154
4.1072                32.3841294     -89.9994582       25.5885284     -90.0127416       25.5856008     -90.0351152       721.127621      89.9937992
4.1088                32.2847369     -89.9994696       25.6490172     -90.0120955         25.64599     -90.0344892       722.263196      89.9939891
4.1104                32.1854527     -89.9994811       25.7098198     -90.0114533       25.7066915     -90.0338579        723.40259      89.9941848
4.112                  32.086276     -89.9994927       25.7709379     -90.0108163       25.7677071     -90.0332226       724.545826      89.9943862
4.1136                31.9872059     -89.9995043        25.832373     -90.0101857       25.8290384     -90.0325844       725.692927      89.9945929
4.1152                31.8882418      -89.999516       25.8941269     -90.0095627       25.8906874     -90.0319446       726.843916      89.9948047
4.1168                31.7893828     -89.9995277       25.9562012     -90.0089485       25.9526556     -90.0313043       727.998818      89.9950214
4.1184                31.6906281     -89.9995394       26.0185974     -90.0083444       26.0149449     -90.0306646       729.157656      89.9952426
4.12                  31.5919768     -89.9995511       26.0813173     -90.0077514        26.077557     -90.0300269       730.320454       89.995468
4.1216                31.4934282     -89.9995627       26.1443625     -90.0071709       26.1404935     -90.0293921       731.487235      89.9956975
4.1232                31.3949814     -89.9995741       26.2077345     -90.0066038       26.2037563     -90.0287615       732.658023      89.9959306
4.1248                31.2966357     -89.9995855        26.271435     -90.0060514       26.2673471     -90.0281361       733.832844       89.996167
4.1264                31.1983901     -89.9995967       26.3354656     -90.0055147       26.3312675     -90.0275172       735.011719      89.9964065
4.128                  31.100244     -89.9996076       26.3998279     -90.0049948       26.3955193     -90.0269056       736.194674      89.9966486
4.1296                31.0021964     -89.9996184       26.4645235     -90.0044928       26.4601042     -90.0263026       737.381733      89.9968931
4.1312                30.9042465     -89.9996289        26.529554     -90.0040096       26.5250238     -90.0257092       738.572921      89.9971396
4.1328                30.8063936     -89.9996392       26.5949208     -90.0035463         26.59028     -90.0251264        739.76826      89.9973878
4.1344                30.7086368     -89.9996491       26.6606257     -90.0031039       26.6558744     -90.0245551       740.967776      89.9976373
4.136                 30.6109752     -89.9996587       26.7266702     -90.0026832       26.7218087     -90.0239965       742.171492      89.9978876
4.1376                30.5134081     -89.9996679       26.7930558     -90.0022852       26.7880845     -90.0234513       743.379434      89.9981385
4.1392                30.4159346     -89.9996767       26.8597841     -90.0019107       26.8547036     -90.0229207       744.591626      89.9983896
4.1408                30.3185538     -89.9996851       26.9268566     -90.0015606       26.9216676     -90.0224054       745.808091      89.9986404
4.1424                 30.221265     -89.9996931       26.9942749     -90.0012356       26.9889782     -90.0219063       747.028855      89.9988905
4.144                 30.1240673     -89.9997006       27.0620405     -90.0009366        27.056637     -90.0214242       748.253941      89.9991396
4.1456                30.0269598     -89.9997075       27.1301548     -90.0006641       27.1246458       -90.02096       749.483375      89.9993873
4.1472                29.9299417      -89.999714       27.1986196      -90.000419       27.1930062     -90.0205144        750.71718      89.9996331
4.1488                29.8330123     -89.9997198       27.2674361     -90.0002017       27.2617197     -90.0200882        751.95538      89.9998765
4.1504                29.7361705     -89.9997251       27.3366061      -90.000013       27.3307881     -90.0196819          753.198      90.0001173
4.152                 29.6394156     -89.9997298       27.4061309     -89.9998533       27.4002131     -90.0192964       754.445065      90.0003548
4.1536                29.5427462     -89.9996366       27.4760326     -89.9996959       27.4700168      -90.018905       755.696587      90.0005892
4.1552                29.4461619     -89.9995425       27.5462923     -89.9995687       27.5401803     -90.0185357       756.952602      90.0008196
4.1568                 29.349662     -89.9994521       27.6169104     -89.9994731       27.6107044     -90.0181901       758.213133      90.0010455
4.1584                29.2532456     -89.9993655       27.6878885     -89.9994097       27.6815906     -90.0178689       759.478206      90.0012664
4.16                  29.1569118     -89.9992828       27.7592278     -89.9993786       27.7528405     -90.0175723       760.747843       90.001482
4.1616                29.0606598     -89.9992042       27.8309299     -89.9993801       27.8244557     -90.0173009       762.022069      90.0016917
4.1632                28.9644888     -89.9991298       27.9029963     -89.9994143       27.8964378      -90.017055       763.300908      90.0018952
4.1648                28.8683979     -89.9990597       27.9754283     -89.9994814       27.9687884     -90.0168348       764.584382      90.0020921
4.1664                28.7723861      -89.998994       28.0482273     -89.9995812       28.0415089     -90.0166406       765.872516      90.0022817
4.168                 28.6764527     -89.9989328       28.1213949     -89.9997139       28.1146012     -90.0164724       767.165333      90.0024638
4.1696                28.5805968     -89.9988762       28.1949325     -89.9998792       28.1880666     -90.0163305       768.462856      90.0026379
4.1712                28.4848176     -89.9988244       28.2688415      -90.000077       28.2619069     -90.0162147       769.765109      90.0028036
4.1728                 28.389114     -89.9987773       28.3431234      -90.000307       28.3361236     -90.0161252       771.072114      90.0029604
4.1744                28.2934854     -89.9987351       28.4177796     -90.0005688       28.4107183     -90.0160617       772.383893       90.003108
4.176                 28.1979308     -89.9986978       28.4928117      -90.000862       28.4856926     -90.0160241       773.700471      90.0032459
4.1776                28.1024493     -89.9986655       28.5682209     -90.0011861       28.5610482     -90.0160121       775.021868      90.0033737
4.1792                28.0070402     -89.9986382        28.644009     -90.0015404       28.6367867     -90.0160254       776.348109      90.0034911
4.1808                27.9117024     -89.9986159       28.7201773     -90.0019244       28.7129097     -90.0160636       777.679213      90.0035977
4.1824                27.8164352     -89.9985988       28.7967273     -90.0023372       28.7894189     -90.0161262       779.015205      90.0036932
4.184                 27.7212376     -89.9985867       28.8736607     -90.0027779       28.8663159     -90.0162127       780.356105      90.0037771
4.1856                27.6261088     -89.9985798       28.9509788     -90.0032457       28.9436024     -90.0163224       781.701934      90.0038492
4.1872                27.5310479     -89.9985779       29.0286834     -90.0037394       29.0212801     -90.0164545       783.052715      90.0039093
4.1888                27.4360541     -89.9985812       29.1067759     -90.0042579       29.0993507     -90.0166084       784.408469      90.0039569
4.1904                27.3411264     -89.9985895        29.185258        -90.0048        29.177816     -90.0167829       785.769215      90.0039919
4.192                 27.2462641     -89.9986028       29.2641313     -90.0053644       29.2566776     -90.0169773       787.134977       90.004014
4.1936                27.1514661     -89.9986211       29.3433974     -90.0059496       29.3359375     -90.0171904       788.505772      90.0040231
4.1952                27.0567317     -89.9986443       29.4230581      -90.006554       29.4155974      -90.017421       789.881624      90.0040189
4.1968                  26.96206     -89.9986723       29.5031151     -90.0071762       29.4956591     -90.0176679        791.26255      90.0040013
4.1984                  26.86745      -89.998705       29.5835701     -90.0078142       29.5761245     -90.0179297       792.648572      90.0039702
4.2                    26.772901     -89.9987423       29.6644249     -90.0084663       29.6569955      -90.018205       794.039709      90.0039256
4.2016                26.6784121     -89.9987842       29.7456814     -90.0091305       29.7382741     -90.0184923       795.435982      90.0038673
4.2032                26.5839824     -89.9988303       29.8273415     -90.0098049       29.8199622     -90.0187899       796.837408      90.0037955
4.2048                 26.489611     -89.9988807       29.9094071     -90.0104872       29.9020619     -90.0190961       798.244009      90.0037101
4.2064                26.3952971     -89.9989352       29.9918802     -90.0111752       29.9845753     -90.0194091       799.655802      90.0036112
4.208                 26.3010398     -89.9989934       30.0747629     -90.0118666       30.0675044      -90.019727       801.072808       90.003499
4.2096                26.2068383     -89.9990554       30.1580572     -90.0125589       30.1508516     -90.0200478       802.495044      90.0033738
4.2112                26.1126916     -89.9991207       30.2417654     -90.0132496        30.234619     -90.0203694       803.922531      90.0032356
4.2128                 26.018599     -89.9991893       30.3258897     -90.0139359       30.3188089     -90.0206895       805.355287      90.0030849
4.2144                25.9245596     -89.9992608       30.4104324     -90.0146152       30.4034237     -90.0210059        806.79333      90.0029221
4.216                 25.8305726      -89.999335       30.4953959     -90.0152846       30.4884659     -90.0213162       808.236681      90.0027474
4.2176                25.7366365     -89.9993163       30.5808037     -90.0159194       30.5739589     -90.0215963       809.685345       90.002562
4.2192                25.6427511     -89.9992978       30.6666379     -90.0165381       30.6598848     -90.0218651       811.139354      90.0023659
4.2208                25.5489155     -89.9992799        30.752901     -90.0171377       30.7462463     -90.0221201       812.598727      90.0021597
4.2224                25.4551289     -89.9992625       30.8395957     -90.0177152       30.8330459     -90.0223586       814.063483      90.0019442
4.224                 25.3613906     -89.9992458       30.9267248     -90.0182672       30.9202865     -90.0225781       815.533641      90.0017201
4.2256                25.2676996     -89.9992299       31.0142911     -90.0187906        31.007971     -90.0227757       817.009222      90.0014883
4.2272                25.1740553     -89.9992149       31.1022977     -90.0192821       31.0961022     -90.0229487       818.490246      90.0012497
4.2288                25.0804568      -89.999201       31.1907477     -90.0197381       31.1846833      -90.023094       819.976733      90.0010054
4.2304                24.9869033     -89.9991882       31.2796444     -90.0201552       31.2737176     -90.0232088       821.468705      90.0007564
4.232                 24.8933941     -89.9991768       31.3689911       -90.02053       31.3632082       -90.02329       822.966183       90.000504
4.2336                24.7999283     -89.9991668       31.4587915     -90.0208587       31.4531587     -90.0233346        824.46919      90.0002495
4.2352                24.7065053     -89.9991585        31.549049     -90.0211379       31.5435727     -90.0233396        825.97775      89.9999943
4.2368                24.6131242     -89.9991519       31.6397677     -90.0213639       31.6344538     -90.0233016       827.491885      89.9997398
4.2384                24.5197843     -89.9991472       31.7309515     -90.0215331       31.7258059     -90.0232177       829.011622      89.9994876
4.24                   24.426485     -89.9991445       31.8226045     -90.0216416       31.8176331     -90.0230846       830.536985      89.9992395
4.2416                24.3332254      -89.999144       31.9147312      -90.021686       31.9099395     -90.0228992       832.068004      89.9989973
4.2432                24.2400048      -89.999146        32.007336     -90.0216624       32.0027295     -90.0226583       833.604705      89.9987628
4.2448                24.1468226     -89.9991504       32.1004236     -90.0215673       32.0960076     -90.0223586        835.14712       89.998538
4.2464                 24.053678     -89.9991575       32.1939991     -90.0213971       32.1897786     -90.0219972        836.69528       89.998325
4.248                 23.9605704     -89.9991675       32.2880676     -90.0211482       32.2840473     -90.0215709       838.249218      89.9981261
4.2496                23.8674991     -89.9991805       32.3826343     -90.0208172       32.3788188     -90.0210767       839.808971      89.9979435
4.2512                23.7744634     -89.9991967        32.477705     -90.0204006       32.4740984     -90.0205116       841.374575      89.9977797
4.2528                23.6814628     -89.9992162       32.5732854     -90.0198951       32.5698918     -90.0198727       842.946072      89.9976372
4.2544                23.5884965     -89.9992392       32.6693816     -90.0192976       32.6662045     -90.0191573       844.523502      89.9975186
4.256                  23.495564     -89.9992658           32.766     -90.0186051       32.7630426     -90.0183628       846.106912      89.9974265
4.2576                23.4026647     -89.9992962        32.863147     -90.0178147       32.8604124     -90.0174866       847.696349      89.9973638
4.2592                23.3097979     -89.9993305       32.9608295     -90.0169237       32.9583201     -90.0165265       849.291866      89.9973334
4.2608                23.2169631      -89.999369       33.0590547     -90.0159297       33.0567726     -90.0154802       850.893516      89.9973381
4.2624                23.1241598     -89.9994116       33.1578298     -90.0148306       33.1557768     -90.0143459       852.501357       89.997381
4.264                 23.0313873     -89.9994585       33.2571627     -90.0136243       33.2553399     -90.0131219       854.115454      89.9974651
4.2656                22.9386451     -89.9995099       33.3570611     -90.0123092       33.3554693     -90.0118068        855.73587      89.9975936
4.2672                22.8459327     -89.9995658       33.4575335     -90.0108841       33.4561729     -90.0103995       857.362678      89.9977696
4.2688                22.7532497     -89.9996263       33.5585882     -90.0093479       33.5574585     -90.0088991       858.995954      89.9979963
4.2704                22.6605954     -89.9996915       33.6602341     -90.0077003       33.6593345     -90.0073053       860.635776      89.9982769
4.272                 22.5679694     -89.9997615       33.7624803     -90.0059411       33.7618094      -90.005618       862.282232      89.9986144
4.2736                22.4753713     -89.9998362       33.8653363     -90.0040706        33.864892     -90.0038376       863.935413      89.9990121
4.2752                22.3828006     -89.9999157       33.9688117     -90.0020898       33.9685914      -90.001965       865.595415       89.999473
4.2768                22.2902567             -90       34.0729164     -90.0000002       34.0729169     -90.0000015       867.262342      90.0000001
4.2784                22.1977377     -89.9998331       34.1777184     -89.9977573       34.1779357     -89.9979027       868.936272      90.0005979
4.28                  22.1052446     -89.9996499       34.2831753     -89.9954072       34.2836047     -89.9957142        870.61735      90.0012678
4.2816                22.0127769     -89.9994516       34.3892976     -89.9929535       34.3899339     -89.9934395       872.305699      90.0020122
4.2832                21.9203344     -89.9992382       34.4960963     -89.9904005       34.4969335     -89.9910825       874.001449      90.0028335
4.2848                21.8279164     -89.9990097       34.6035825     -89.9877531       34.6046138     -89.9886476       875.704738      90.0037337
4.2864                21.7355227     -89.9987663       34.7117677     -89.9850173       34.7129855     -89.9861404       877.415711      90.0047149
4.288                 21.6431528     -89.9985083       34.8206632     -89.9821997       34.8220594      -89.983567        879.13452      90.0057783
4.2896                21.5508064      -89.998236       34.9302807     -89.9793082       34.9318462     -89.9809345       880.861325      90.0069251
4.2912                21.4584829     -89.9979498       35.0406318     -89.9763514       35.0423568     -89.9782508       882.596295       90.008156
4.2928                 21.366182     -89.9976503       35.1517282     -89.9733391       35.1536021     -89.9755249       884.339605       90.009471
4.2944                21.2739032     -89.9973383       35.2635816     -89.9702821        35.265593     -89.9727668       886.091438      90.0108698
4.296                 21.1816462     -89.9970145       35.3762034     -89.9671925       35.3783402     -89.9699873       887.851985      90.0123514
4.2976                21.0894104     -89.9966798       35.4896051     -89.9640834       35.4918544     -89.9671986       889.621444      90.0139139
4.2992                20.9971954     -89.9963353       35.6037979     -89.9609692       35.6061461     -89.9644137       891.400018      90.0155548
4.3008                20.9050007     -89.9959823       35.7187926     -89.9578655       35.7212254     -89.9616471       893.187919      90.0172707
4.3024                20.8128258      -89.995622       35.8345998     -89.9547893        35.837102     -89.9589142       894.985361      90.0190574
4.304                 20.7206701     -89.9952561       35.9512295     -89.9517587       35.9537854     -89.9562317       896.792566      90.0209094
4.3056                20.6285331     -89.9948862        36.068691     -89.9487932       36.0712842     -89.9536174       898.609757      90.0228203
4.3072                20.5364142     -89.9945141       36.1869932     -89.9459136       36.1896066     -89.9510903       900.437159      90.0247826
4.3088                20.4443126     -89.9941419       36.3061437      -89.943142         36.30876     -89.9486707       902.274998      90.0267871
4.3104                20.3522276     -89.9937717       36.4261496     -89.9405018       36.4287506       -89.94638         904.1235      90.0288237
4.312                 20.2601585     -89.9934059       36.5470165     -89.9380174       36.5495838     -89.9442406       905.982885      90.0308806